===============================================
Execution on node     : n036
Job id = 506634
Temporary files on:  /scratch/gvallver/506634
===============================================
Begin job execution: Thu Mar 23 12:44:35 CET 2023
 Entering Gaussian System, Link 0=g16
 Initial command:
 /softs/apps/g16-b01/g16/l1.exe "/scratch/gvallver/506634/Gau-64577.inp" -scrdir="/scratch/gvallver/506634/"
 Entering Link 1 = /softs/apps/g16-b01/g16/l1.exe PID=     64578.
  
 Copyright (c) 1988-2017, Gaussian, Inc.  All Rights Reserved.
  
 This is part of the Gaussian(R) 16 program.  It is based on
 the Gaussian(R) 09 system (copyright 2009, Gaussian, Inc.),
 the Gaussian(R) 03 system (copyright 2003, Gaussian, Inc.),
 the Gaussian(R) 98 system (copyright 1998, Gaussian, Inc.),
 the Gaussian(R) 94 system (copyright 1995, Gaussian, Inc.),
 the Gaussian 92(TM) system (copyright 1992, Gaussian, Inc.),
 the Gaussian 90(TM) system (copyright 1990, Gaussian, Inc.),
 the Gaussian 88(TM) system (copyright 1988, Gaussian, Inc.),
 the Gaussian 86(TM) system (copyright 1986, Carnegie Mellon
 University), and the Gaussian 82(TM) system (copyright 1983,
 Carnegie Mellon University). Gaussian is a federally registered
 trademark of Gaussian, Inc.
  
 This software contains proprietary and confidential information,
 including trade secrets, belonging to Gaussian, Inc.
  
 This software is provided under written license and may be
 used, copied, transmitted, or stored only in accord with that
 written license.
  
 The following legend is applicable only to US Government
 contracts under FAR:
  
                    RESTRICTED RIGHTS LEGEND
  
 Use, reproduction and disclosure by the US Government is
 subject to restrictions as set forth in subparagraphs (a)
 and (c) of the Commercial Computer Software - Restricted
 Rights clause in FAR 52.227-19.
  
 Gaussian, Inc.
 340 Quinnipiac St., Bldg. 40, Wallingford CT 06492
  
  
 ---------------------------------------------------------------
 Warning -- This program may not be used in any manner that
 competes with the business of Gaussian, Inc. or will provide
 assistance to any competitor of Gaussian, Inc.  The licensee
 of this program is prohibited from giving any competitor of
 Gaussian, Inc. access to this program.  By using this program,
 the user acknowledges that Gaussian, Inc. is engaged in the
 business of creating and licensing software in the field of
 computational chemistry and represents and warrants to the
 licensee that it is not a competitor of Gaussian, Inc. and that
 it will not use this program in any manner prohibited above.
 ---------------------------------------------------------------
  

 Cite this work as:
 Gaussian 16, Revision B.01,
 M. J. Frisch, G. W. Trucks, H. B. Schlegel, G. E. Scuseria, 
 M. A. Robb, J. R. Cheeseman, G. Scalmani, V. Barone, 
 G. A. Petersson, H. Nakatsuji, X. Li, M. Caricato, A. V. Marenich, 
 J. Bloino, B. G. Janesko, R. Gomperts, B. Mennucci, H. P. Hratchian, 
 J. V. Ortiz, A. F. Izmaylov, J. L. Sonnenberg, D. Williams-Young, 
 F. Ding, F. Lipparini, F. Egidi, J. Goings, B. Peng, A. Petrone, 
 T. Henderson, D. Ranasinghe, V. G. Zakrzewski, J. Gao, N. Rega, 
 G. Zheng, W. Liang, M. Hada, M. Ehara, K. Toyota, R. Fukuda, 
 J. Hasegawa, M. Ishida, T. Nakajima, Y. Honda, O. Kitao, H. Nakai, 
 T. Vreven, K. Throssell, J. A. Montgomery, Jr., J. E. Peralta, 
 F. Ogliaro, M. J. Bearpark, J. J. Heyd, E. N. Brothers, K. N. Kudin, 
 V. N. Staroverov, T. A. Keith, R. Kobayashi, J. Normand, 
 K. Raghavachari, A. P. Rendell, J. C. Burant, S. S. Iyengar, 
 J. Tomasi, M. Cossi, J. M. Millam, M. Klene, C. Adamo, R. Cammi, 
 J. W. Ochterski, R. L. Martin, K. Morokuma, O. Farkas, 
 J. B. Foresman, and D. J. Fox, Gaussian, Inc., Wallingford CT, 2016.
 
 ******************************************
 Gaussian 16:  EM64L-G16RevB.01 20-Dec-2017
                23-Mar-2023 
 ******************************************
 %nprocs=4
 Will use up to    4 processors via shared memory.
 ----------------------
 # B3LYP /6-31G* 5d opt
 ----------------------
 1/18=20,19=15,26=3,38=1/1,3;
 2/9=110,12=2,17=6,18=5,40=1/2;
 3/5=1,6=6,7=1,8=1,11=2,25=1,30=1,71=1,74=-5/1,2,3;
 4//1;
 5/5=2,38=5/2;
 6/7=2,8=2,9=2,10=2,28=1/1;
 7//1,2,3,16;
 1/18=20,19=15,26=3/3(2);
 2/9=110/2;
 99//99;
 2/9=110/2;
 3/5=1,6=6,7=1,8=1,11=2,25=1,30=1,71=1,74=-5/1,2,3;
 4/5=5,16=3,69=1/1;
 5/5=2,38=5/2;
 7//1,2,3,16;
 1/18=20,19=15,26=3/3(-5);
 2/9=110/2;
 6/7=2,8=2,9=2,10=2,19=2,28=1/1;
 99/9=1/99;
 -------------------------------
 Coordinates from ORCA-job input
 -------------------------------
 Symbolic Z-matrix:
 Charge =  0 Multiplicity = 1
 P                    -2.34688   1.12985   0.25159 
 C                    -0.74108   1.09979   0.00744 
 H                    -0.18149   0.48924   0.73584 
 N                    -0.24059   2.47569   0.21898 
 H                    -0.54267   0.85542  -1.10286 
 C                     1.10647   2.7924   -0.27354 
 H                    -0.97114   3.11141  -0.10923 
 C                     1.61385   4.24542   0.09668 
 O                    -2.98242   2.08984  -0.54556 
 O                    -2.62455   1.31733   1.69391 
 O                    -2.7874   -0.26749  -0.1044 
 H                    -3.6947   -0.18933  -0.26208 
 H                    -3.54721   1.41367   1.74983 
 H                     1.08438   2.64403  -1.37957 
 H                     1.74793   1.97638   0.14395 
 O                     1.07243   4.92617   0.93153 
 O                     2.78271   4.72255  -0.57215 
 H                     3.07048   3.88299  -0.98027 
 

 GradGradGradGradGradGradGradGradGradGradGradGradGradGradGradGradGradGrad
 Berny optimization.
 Initialization pass.
                           ----------------------------
                           !    Initial Parameters    !
                           ! (Angstroms and Degrees)  !
 --------------------------                            --------------------------
 ! Name  Definition              Value          Derivative Info.                !
 --------------------------------------------------------------------------------
 ! R1    R(1,2)                  1.6245         estimate D2E/DX2                !
 ! R2    R(1,9)                  1.4003         estimate D2E/DX2                !
 ! R3    R(1,10)                 1.4807         estimate D2E/DX2                !
 ! R4    R(1,11)                 1.5078         estimate D2E/DX2                !
 ! R5    R(2,3)                  1.1029         estimate D2E/DX2                !
 ! R6    R(2,4)                  1.4793         estimate D2E/DX2                !
 ! R7    R(2,5)                  1.1541         estimate D2E/DX2                !
 ! R8    R(4,6)                  1.4688         estimate D2E/DX2                !
 ! R9    R(4,7)                  1.0225         estimate D2E/DX2                !
 ! R10   R(6,8)                  1.583          estimate D2E/DX2                !
 ! R11   R(6,14)                 1.1162         estimate D2E/DX2                !
 ! R12   R(6,15)                 1.1188         estimate D2E/DX2                !
 ! R13   R(8,16)                 1.2056         estimate D2E/DX2                !
 ! R14   R(8,17)                 1.4287         estimate D2E/DX2                !
 ! R15   R(10,13)                0.9294         estimate D2E/DX2                !
 ! R16   R(11,12)                0.9242         estimate D2E/DX2                !
 ! R17   R(17,18)                0.9768         estimate D2E/DX2                !
 ! A1    A(2,1,9)              112.0705         estimate D2E/DX2                !
 ! A2    A(2,1,10)             109.5175         estimate D2E/DX2                !
 ! A3    A(2,1,11)             103.6605         estimate D2E/DX2                !
 ! A4    A(9,1,10)             112.494          estimate D2E/DX2                !
 ! A5    A(9,1,11)             111.613          estimate D2E/DX2                !
 ! A6    A(10,1,11)            107.0095         estimate D2E/DX2                !
 ! A7    A(1,2,3)              114.362          estimate D2E/DX2                !
 ! A8    A(1,2,4)              107.2011         estimate D2E/DX2                !
 ! A9    A(1,2,5)              108.5693         estimate D2E/DX2                !
 ! A10   A(3,2,4)              104.405          estimate D2E/DX2                !
 ! A11   A(3,2,5)              115.5265         estimate D2E/DX2                !
 ! A12   A(4,2,5)              106.0432         estimate D2E/DX2                !
 ! A13   A(2,4,6)              117.5731         estimate D2E/DX2                !
 ! A14   A(2,4,7)              106.896          estimate D2E/DX2                !
 ! A15   A(6,4,7)              114.4275         estimate D2E/DX2                !
 ! A16   A(4,6,8)              114.422          estimate D2E/DX2                !
 ! A17   A(4,6,14)             106.5864         estimate D2E/DX2                !
 ! A18   A(4,6,15)             104.0889         estimate D2E/DX2                !
 ! A19   A(8,6,14)             111.1073         estimate D2E/DX2                !
 ! A20   A(8,6,15)             113.4821         estimate D2E/DX2                !
 ! A21   A(14,6,15)            106.5094         estimate D2E/DX2                !
 ! A22   A(6,8,16)             122.4324         estimate D2E/DX2                !
 ! A23   A(6,8,17)             117.3411         estimate D2E/DX2                !
 ! A24   A(16,8,17)            120.1987         estimate D2E/DX2                !
 ! A25   A(1,10,13)            104.9459         estimate D2E/DX2                !
 ! A26   A(1,11,12)            104.4025         estimate D2E/DX2                !
 ! A27   A(8,17,18)             98.6019         estimate D2E/DX2                !
 ! D1    D(9,1,2,3)            169.741          estimate D2E/DX2                !
 ! D2    D(9,1,2,4)             54.5233         estimate D2E/DX2                !
 ! D3    D(9,1,2,5)            -59.6306         estimate D2E/DX2                !
 ! D4    D(10,1,2,3)            44.169          estimate D2E/DX2                !
 ! D5    D(10,1,2,4)           -71.0487         estimate D2E/DX2                !
 ! D6    D(10,1,2,5)           174.7974         estimate D2E/DX2                !
 ! D7    D(11,1,2,3)           -69.7565         estimate D2E/DX2                !
 ! D8    D(11,1,2,4)           175.0258         estimate D2E/DX2                !
 ! D9    D(11,1,2,5)            60.8719         estimate D2E/DX2                !
 ! D10   D(2,1,10,13)          174.2925         estimate D2E/DX2                !
 ! D11   D(9,1,10,13)           48.9642         estimate D2E/DX2                !
 ! D12   D(11,1,10,13)         -73.9634         estimate D2E/DX2                !
 ! D13   D(2,1,11,12)         -160.5681         estimate D2E/DX2                !
 ! D14   D(9,1,11,12)          -39.7563         estimate D2E/DX2                !
 ! D15   D(10,1,11,12)          83.7167         estimate D2E/DX2                !
 ! D16   D(1,2,4,6)           -164.5167         estimate D2E/DX2                !
 ! D17   D(1,2,4,7)            -34.2618         estimate D2E/DX2                !
 ! D18   D(3,2,4,6)             73.7919         estimate D2E/DX2                !
 ! D19   D(3,2,4,7)           -155.9532         estimate D2E/DX2                !
 ! D20   D(5,2,4,6)            -48.6746         estimate D2E/DX2                !
 ! D21   D(5,2,4,7)             81.5803         estimate D2E/DX2                !
 ! D22   D(2,4,6,8)           -175.1837         estimate D2E/DX2                !
 ! D23   D(2,4,6,14)            61.5915         estimate D2E/DX2                !
 ! D24   D(2,4,6,15)           -50.7707         estimate D2E/DX2                !
 ! D25   D(7,4,6,8)             58.1405         estimate D2E/DX2                !
 ! D26   D(7,4,6,14)           -65.0844         estimate D2E/DX2                !
 ! D27   D(7,4,6,15)          -177.4465         estimate D2E/DX2                !
 ! D28   D(4,6,8,16)            14.4991         estimate D2E/DX2                !
 ! D29   D(4,6,8,17)          -167.4181         estimate D2E/DX2                !
 ! D30   D(14,6,8,16)          135.2524         estimate D2E/DX2                !
 ! D31   D(14,6,8,17)          -46.6648         estimate D2E/DX2                !
 ! D32   D(15,6,8,16)         -104.7599         estimate D2E/DX2                !
 ! D33   D(15,6,8,17)           73.3229         estimate D2E/DX2                !
 ! D34   D(6,8,17,18)          -11.4255         estimate D2E/DX2                !
 ! D35   D(16,8,17,18)         166.7022         estimate D2E/DX2                !
 --------------------------------------------------------------------------------
 Trust Radius=3.00D-01 FncErr=1.00D-07 GrdErr=1.00D-06 EigMax=2.50D+02 EigMin=1.00D-04
 Number of steps in this run=     89 maximum allowed number of steps=    108.
 GradGradGradGradGradGradGradGradGradGradGradGradGradGradGradGradGradGrad

                          Input orientation:                          
 ---------------------------------------------------------------------
 Center     Atomic      Atomic             Coordinates (Angstroms)
 Number     Number       Type             X           Y           Z
 ---------------------------------------------------------------------
      1         15           0       -2.346880    1.129850    0.251587
      2          6           0       -0.741079    1.099790    0.007437
      3          1           0       -0.181489    0.489240    0.735839
      4          7           0       -0.240587    2.475690    0.218979
      5          1           0       -0.542668    0.855415   -1.102860
      6          6           0        1.106470    2.792400   -0.273540
      7          1           0       -0.971136    3.111410   -0.109231
      8          6           0        1.613850    4.245420    0.096678
      9          8           0       -2.982420    2.089840   -0.545561
     10          8           0       -2.624550    1.317330    1.693910
     11          8           0       -2.787400   -0.267489   -0.104395
     12          1           0       -3.694700   -0.189332   -0.262081
     13          1           0       -3.547210    1.413670    1.749830
     14          1           0        1.084380    2.644030   -1.379570
     15          1           0        1.747930    1.976380    0.143950
     16          8           0        1.072430    4.926170    0.931533
     17          8           0        2.782710    4.722550   -0.572154
     18          1           0        3.070480    3.882990   -0.980268
 ---------------------------------------------------------------------
                    Distance matrix (angstroms):
                    1          2          3          4          5
     1  P    0.000000
     2  C    1.624534   0.000000
     3  H    2.309502   1.102942   0.000000
     4  N    2.499764   1.479305   2.053441   0.000000
     5  H    2.272669   1.154056   1.909280   2.112771   0.000000
     6  C    3.868521   2.521371   2.825284   1.468824   2.675694
     7  H    2.439148   2.028091   2.865914   1.022528   2.502079
     8  C    5.041642   3.930476   4.211966   2.566289   4.193041
     9  O    1.400335   2.511895   3.471184   2.872464   2.790480
    10  O    1.480724   2.537514   2.751759   3.033232   3.517033
    11  O    1.507759   2.463613   2.840670   3.757108   2.701234
    12  H    1.954665   3.233938   3.714695   4.389152   3.425451
    13  H    1.940639   3.317955   3.634670   3.795411   4.180522
    14  H    4.089861   2.764194   3.274217   2.083083   2.433721
    15  H    4.182782   2.642387   2.506906   2.051619   2.838651
    16  O    5.154227   4.334046   4.614863   2.869948   4.828907
    17  O    6.316545   5.086984   5.330876   3.848973   5.127818
    18  H    6.200406   4.821799   5.003785   3.792341   4.715515
                    6          7          8          9         10
     6  C    0.000000
     7  H    2.108367   0.000000
     8  C    1.582960   2.830288   0.000000
     9  O    4.157717   2.297662   5.117098   0.000000
    10  O    4.468467   3.033780   5.393412   2.395845   0.000000
    11  O    4.955174   3.836117   6.306963   2.406171   2.402514
    12  H    5.651733   4.282063   6.926502   2.404647   2.690939
    13  H    5.258485   3.602025   6.114594   2.458661   0.929360
    14  H    1.116156   2.461169   2.241450   4.188265   4.996256
    15  H    1.118775   2.957315   2.273490   4.781685   4.685649
    16  O    2.450782   2.924501   1.205628   5.164144   5.222318
    17  O    2.573797   4.111135   1.428714   6.337870   6.780046
    18  H    2.355034   4.205794   1.847414   6.327871   6.794645
                   11         12         13         14         15
    11  O    0.000000
    12  H    0.924211   0.000000
    13  H    2.615675   2.576656   0.000000
    14  H    5.009361   5.667127   5.723509   0.000000
    15  H    5.066147   5.871745   5.561834   1.790857   0.000000
    16  O    6.553284   7.093561   5.860746   3.248000   3.126955
    17  O    7.493024   8.135083   7.510538   2.802943   3.020766
    18  H    7.232454   7.928888   7.572635   2.374670   2.578404
                   16         17         18
    16  O    0.000000
    17  O    2.286393   0.000000
    18  H    2.955573   0.976847   0.000000
 Stoichiometry    C3H8NO5P
 Framework group  C1[X(C3H8NO5P)]
 Deg. of freedom    48
 Full point group                 C1      NOp   1
 Largest Abelian subgroup         C1      NOp   1
 Largest concise Abelian subgroup C1      NOp   1
                         Standard orientation:                         
 ---------------------------------------------------------------------
 Center     Atomic      Atomic             Coordinates (Angstroms)
 Number     Number       Type             X           Y           Z
 ---------------------------------------------------------------------
      1         15           0        1.976508    0.037591    0.073861
      2          6           0        0.705856   -0.839990   -0.430527
      3          1           0        0.676866   -1.014516   -1.519188
      4          7           0       -0.511559   -0.046965   -0.152399
      5          1           0        0.627862   -1.785250    0.226927
      6          6           0       -1.802389   -0.746754   -0.191096
      7          1           0       -0.337465    0.471688    0.711461
      8          6           0       -3.062175    0.192856   -0.001795
      9          8           0        1.849810    0.425084    1.413537
     10          8           0        2.172366    1.191259   -0.833462
     11          8           0        3.150409   -0.886768   -0.128263
     12          1           0        3.813009   -0.538836    0.414020
     13          1           0        2.849342    1.692634   -0.440988
     14          1           0       -1.763369   -1.531341    0.601812
     15          1           0       -1.791074   -1.285023   -1.171808
     16          8           0       -2.993473    1.392949   -0.094518
     17          8           0       -4.319734   -0.437880    0.247083
     18          1           0       -4.064646   -1.358292    0.042139
 ---------------------------------------------------------------------
 Rotational constants (GHZ):           3.2860075           0.4543007           0.4352743
 Standard basis: 6-31G(d) (5D, 7F)
 There are   170 symmetry adapted cartesian basis functions of A   symmetry.
 There are   160 symmetry adapted basis functions of A   symmetry.
   160 basis functions,   336 primitive gaussians,   170 cartesian basis functions
    44 alpha electrons       44 beta electrons
       nuclear repulsion energy       685.7506501352 Hartrees.
 NAtoms=   18 NActive=   18 NUniq=   18 SFac= 1.00D+00 NAtFMM=   60 NAOKFM=F Big=F
 Integral buffers will be    131072 words long.
 Raffenetti 2 integral format.
 Two-electron integral symmetry is turned on.
 One-electron integrals computed using PRISM.
 NBasis=   160 RedAO= T EigKep=  4.54D-03  NBF=   160
 NBsUse=   160 1.00D-06 EigRej= -1.00D+00 NBFU=   160
 ExpMin= 9.98D-02 ExpMax= 1.94D+04 ExpMxC= 2.91D+03 IAcc=3 IRadAn=         5 AccDes= 0.00D+00
 Harris functional with IExCor=  402 and IRadAn=       5 diagonalized for initial guess.
 HarFok:  IExCor=  402 AccDes= 0.00D+00 IRadAn=         5 IDoV= 1 UseB2=F ITyADJ=14
 ICtDFT=  3500011 ScaDFX=  1.000000  1.000000  1.000000  1.000000
 FoFCou: FMM=F IPFlag=           0 FMFlag=      100000 FMFlg1=           0
         NFxFlg=           0 DoJE=T BraDBF=F KetDBF=T FulRan=T
         wScrn=  0.000000 ICntrl=       500 IOpCl=  0 I1Cent=   200000004 NGrid=           0
         NMat0=    1 NMatS0=      1 NMatT0=    0 NMatD0=    1 NMtDS0=    0 NMtDT0=    0
 Petite list used in FoFCou.
 Keep R1 ints in memory in canonical form, NReq=86944357.
 Requested convergence on RMS density matrix=1.00D-08 within 128 cycles.
 Requested convergence on MAX density matrix=1.00D-06.
 Requested convergence on             energy=1.00D-06.
 No special actions if energy rises.
 Integral accuracy reduced to 1.0D-05 until final iterations.
 Initial convergence to 1.0D-05 achieved.  Increase integral accuracy.
 SCF Done:  E(RB3LYP) =  -891.297690221     A.U. after   14 cycles
            NFock= 14  Conv=0.69D-08     -V/T= 2.0034

 **********************************************************************

            Population analysis using the SCF Density.

 **********************************************************************

 Orbital symmetries:
       Occupied  (A) (A) (A) (A) (A) (A) (A) (A) (A) (A) (A) (A)
                 (A) (A) (A) (A) (A) (A) (A) (A) (A) (A) (A) (A)
                 (A) (A) (A) (A) (A) (A) (A) (A) (A) (A) (A) (A)
                 (A) (A) (A) (A) (A) (A) (A) (A)
       Virtual   (A) (A) (A) (A) (A) (A) (A) (A) (A) (A) (A) (A)
                 (A) (A) (A) (A) (A) (A) (A) (A) (A) (A) (A) (A)
                 (A) (A) (A) (A) (A) (A) (A) (A) (A) (A) (A) (A)
                 (A) (A) (A) (A) (A) (A) (A) (A) (A) (A) (A) (A)
                 (A) (A) (A) (A) (A) (A) (A) (A) (A) (A) (A) (A)
                 (A) (A) (A) (A) (A) (A) (A) (A) (A) (A) (A) (A)
                 (A) (A) (A) (A) (A) (A) (A) (A) (A) (A) (A) (A)
                 (A) (A) (A) (A) (A) (A) (A) (A) (A) (A) (A) (A)
                 (A) (A) (A) (A) (A) (A) (A) (A) (A) (A) (A) (A)
                 (A) (A) (A) (A) (A) (A) (A) (A)
 The electronic state is 1-A.
 Alpha  occ. eigenvalues --  -77.17422 -19.19508 -19.18546 -19.18129 -19.14524
 Alpha  occ. eigenvalues --  -19.08370 -14.32982 -10.33008 -10.25005 -10.21963
 Alpha  occ. eigenvalues --   -6.65093  -4.81372  -4.81240  -4.81060  -1.15238
 Alpha  occ. eigenvalues --   -1.08875  -1.08857  -1.02191  -0.98717  -0.91847
 Alpha  occ. eigenvalues --   -0.77231  -0.69559  -0.62840  -0.59761  -0.58794
 Alpha  occ. eigenvalues --   -0.54728  -0.50642  -0.50253  -0.47659  -0.46580
 Alpha  occ. eigenvalues --   -0.45172  -0.44857  -0.43455  -0.43172  -0.41219
 Alpha  occ. eigenvalues --   -0.39747  -0.38646  -0.36862  -0.35967  -0.32057
 Alpha  occ. eigenvalues --   -0.30419  -0.29081  -0.27879  -0.23147
 Alpha virt. eigenvalues --   -0.00806   0.03401   0.04679   0.05577   0.09200
 Alpha virt. eigenvalues --    0.10561   0.11999   0.13046   0.14071   0.15348
 Alpha virt. eigenvalues --    0.18322   0.19657   0.22292   0.23061   0.25216
 Alpha virt. eigenvalues --    0.27445   0.29881   0.35495   0.36700   0.38973
 Alpha virt. eigenvalues --    0.40484   0.42795   0.50292   0.52135   0.54461
 Alpha virt. eigenvalues --    0.56622   0.58788   0.59662   0.65586   0.66153
 Alpha virt. eigenvalues --    0.67834   0.69236   0.74825   0.75925   0.76438
 Alpha virt. eigenvalues --    0.77958   0.79075   0.82384   0.82755   0.84772
 Alpha virt. eigenvalues --    0.86038   0.87786   0.89240   0.89795   0.92778
 Alpha virt. eigenvalues --    0.94710   0.95524   0.97232   0.98789   1.00699
 Alpha virt. eigenvalues --    1.02037   1.03169   1.05531   1.06267   1.08583
 Alpha virt. eigenvalues --    1.09001   1.13683   1.15919   1.19346   1.21692
 Alpha virt. eigenvalues --    1.23531   1.26428   1.27410   1.33424   1.38514
 Alpha virt. eigenvalues --    1.41622   1.44678   1.47029   1.54095   1.55300
 Alpha virt. eigenvalues --    1.58362   1.61487   1.66374   1.66977   1.70130
 Alpha virt. eigenvalues --    1.71132   1.73706   1.74909   1.76742   1.78306
 Alpha virt. eigenvalues --    1.79361   1.81159   1.82781   1.85649   1.85849
 Alpha virt. eigenvalues --    1.89206   1.90901   1.93763   1.97444   2.00107
 Alpha virt. eigenvalues --    2.00509   2.04769   2.11054   2.14855   2.16399
 Alpha virt. eigenvalues --    2.17602   2.26676   2.28964   2.31279   2.33081
 Alpha virt. eigenvalues --    2.36456   2.41126   2.42452   2.43741   2.47987
 Alpha virt. eigenvalues --    2.50021   2.60574   2.65779   2.70327   2.72257
 Alpha virt. eigenvalues --    2.75782   2.81267   2.85804   2.91387   2.98897
 Alpha virt. eigenvalues --    3.01748
          Condensed to atoms (all electrons):
               1          2          3          4          5          6
     1  P   12.533021   0.258724  -0.010249  -0.008760  -0.019392  -0.001905
     2  C    0.258724   5.256551   0.355083   0.287672   0.354071  -0.035122
     3  H   -0.010249   0.355083   0.533714  -0.054116  -0.028436  -0.002182
     4  N   -0.008760   0.287672  -0.054116   6.941722  -0.054974   0.297978
     5  H   -0.019392   0.354071  -0.028436  -0.054974   0.580773  -0.008295
     6  C   -0.001905  -0.035122  -0.002182   0.297978  -0.008295   5.196195
     7  H   -0.001523  -0.047492   0.006439   0.307566  -0.001059  -0.036488
     8  C   -0.000472   0.002999   0.000138  -0.022525  -0.000262   0.276037
     9  O    0.713785  -0.055317   0.001576  -0.013358  -0.004453   0.000080
    10  O    0.389591  -0.049384   0.000151  -0.001921   0.000630  -0.000001
    11  O    0.365319  -0.059292  -0.000614   0.001056  -0.001389  -0.000008
    12  H   -0.012691   0.004385  -0.000105  -0.000092   0.000196   0.000001
    13  H   -0.020810   0.003558  -0.000077  -0.000085  -0.000094   0.000006
    14  H    0.002124  -0.003609  -0.001392  -0.060167   0.013905   0.340412
    15  H   -0.000757  -0.002483   0.006249  -0.042189  -0.001993   0.355563
    16  O   -0.000113   0.000252   0.000001   0.003508  -0.000001  -0.082322
    17  O    0.000003  -0.000021  -0.000001   0.001425   0.000000  -0.077997
    18  H    0.000005  -0.000016  -0.000004   0.000036   0.000019   0.009897
               7          8          9         10         11         12
     1  P   -0.001523  -0.000472   0.713785   0.389591   0.365319  -0.012691
     2  C   -0.047492   0.002999  -0.055317  -0.049384  -0.059292   0.004385
     3  H    0.006439   0.000138   0.001576   0.000151  -0.000614  -0.000105
     4  N    0.307566  -0.022525  -0.013358  -0.001921   0.001056  -0.000092
     5  H   -0.001059  -0.000262  -0.004453   0.000630  -0.001389   0.000196
     6  C   -0.036488   0.276037   0.000080  -0.000001  -0.000008   0.000001
     7  H    0.406791   0.000461   0.020415  -0.001268   0.000063  -0.000011
     8  C    0.000461   4.371514  -0.000005   0.000002   0.000000  -0.000000
     9  O    0.020415  -0.000005   7.973158  -0.048227  -0.047655   0.002598
    10  O   -0.001268   0.000002  -0.048227   8.038119  -0.047902  -0.001669
    11  O    0.000063   0.000000  -0.047655  -0.047902   8.113348   0.262088
    12  H   -0.000011  -0.000000   0.002598  -0.001669   0.262088   0.299582
    13  H   -0.000079  -0.000000  -0.001177   0.269046  -0.001321  -0.000196
    14  H   -0.003661  -0.037339   0.000042  -0.000004   0.000000   0.000000
    15  H    0.005226  -0.012046  -0.000005   0.000004  -0.000001  -0.000000
    16  O    0.003344   0.646308  -0.000000  -0.000000   0.000000   0.000000
    17  O    0.000076   0.252649  -0.000000  -0.000000  -0.000000   0.000000
    18  H   -0.000018  -0.035723  -0.000000  -0.000000   0.000000   0.000000
              13         14         15         16         17         18
     1  P   -0.020810   0.002124  -0.000757  -0.000113   0.000003   0.000005
     2  C    0.003558  -0.003609  -0.002483   0.000252  -0.000021  -0.000016
     3  H   -0.000077  -0.001392   0.006249   0.000001  -0.000001  -0.000004
     4  N   -0.000085  -0.060167  -0.042189   0.003508   0.001425   0.000036
     5  H   -0.000094   0.013905  -0.001993  -0.000001   0.000000   0.000019
     6  C    0.000006   0.340412   0.355563  -0.082322  -0.077997   0.009897
     7  H   -0.000079  -0.003661   0.005226   0.003344   0.000076  -0.000018
     8  C   -0.000000  -0.037339  -0.012046   0.646308   0.252649  -0.035723
     9  O   -0.001177   0.000042  -0.000005  -0.000000  -0.000000  -0.000000
    10  O    0.269046  -0.000004   0.000004  -0.000000  -0.000000  -0.000000
    11  O   -0.001321   0.000000  -0.000001   0.000000  -0.000000   0.000000
    12  H   -0.000196   0.000000  -0.000000   0.000000   0.000000   0.000000
    13  H    0.296562   0.000000  -0.000000   0.000000   0.000000  -0.000000
    14  H    0.000000   0.647245  -0.045065   0.001512   0.003323   0.002693
    15  H   -0.000000  -0.045065   0.564025  -0.000072   0.001122   0.000002
    16  O    0.000000   0.001512  -0.000072   7.848832  -0.062741   0.004259
    17  O    0.000000   0.003323   0.001122  -0.062741   8.233175   0.229977
    18  H   -0.000000   0.002693   0.000002   0.004259   0.229977   0.378759
 Mulliken charges:
               1
     1  P    0.814100
     2  C   -0.270560
     3  H    0.193826
     4  N   -0.582776
     5  H    0.170756
     6  C   -0.231849
     7  H    0.341219
     8  C    0.558264
     9  O   -0.541458
    10  O   -0.547167
    11  O   -0.583693
    12  H    0.445914
    13  H    0.454667
    14  H    0.139981
    15  H    0.172419
    16  O   -0.362766
    17  O   -0.580991
    18  H    0.410114
 Sum of Mulliken charges =  -0.00000
 Mulliken charges with hydrogens summed into heavy atoms:
               1
     1  P    0.814100
     2  C    0.094021
     4  N   -0.241557
     6  C    0.080551
     8  C    0.558264
     9  O   -0.541458
    10  O   -0.092500
    11  O   -0.137779
    16  O   -0.362766
    17  O   -0.170876
 Electronic spatial extent (au):  <R**2>=           2417.4502
 Charge=             -0.0000 electrons
 Dipole moment (field-independent basis, Debye):
    X=              3.3249    Y=             -3.7777    Z=             -1.3139  Tot=              5.2012
 Quadrupole moment (field-independent basis, Debye-Ang):
   XX=            -59.1947   YY=            -62.4781   ZZ=            -68.6543
   XY=             16.3019   XZ=              0.2424   YZ=              0.4576
 Traceless Quadrupole moment (field-independent basis, Debye-Ang):
   XX=              4.2477   YY=              0.9642   ZZ=             -5.2120
   XY=             16.3019   XZ=              0.2424   YZ=              0.4576
 Octapole moment (field-independent basis, Debye-Ang**2):
  XXX=            124.0091  YYY=              3.1309  ZZZ=             -7.5991  XYY=              5.6416
  XXY=            -16.8384  XXZ=             -1.6785  XZZ=            -10.2834  YZZ=             -3.5777
  YYZ=              1.3141  XYZ=             -7.5833
 Hexadecapole moment (field-independent basis, Debye-Ang**3):
 XXXX=          -2321.4033 YYYY=           -284.8321 ZZZZ=           -188.6782 XXXY=            192.4443
 XXXZ=             74.7152 YYYX=             60.3376 YYYZ=             -5.1844 ZZZX=            -13.6681
 ZZZY=             -0.9798 XXYY=           -401.9481 XXZZ=           -443.4829 YYZZ=            -80.0304
 XXYZ=            -10.3163 YYXZ=             -1.6364 ZZXY=             -9.1434
 N-N= 6.857506501352D+02 E-N=-3.475972197386D+03  KE= 8.882890281328D+02
 Calling FoFJK, ICntrl=      2127 FMM=F ISym2X=0 I1Cent= 0 IOpClX= 0 NMat=1 NMatS=1 NMatT=0.
 ***** Axes restored to original set *****
 -------------------------------------------------------------------
 Center     Atomic                   Forces (Hartrees/Bohr)
 Number     Number              X              Y              Z
 -------------------------------------------------------------------
      1       15           0.006639176   -0.008600224   -0.026320858
      2        6           0.149257919    0.020430103   -0.029752976
      3        1          -0.001487312   -0.010018471   -0.013113549
      4        7          -0.005060631    0.019783139    0.016870218
      5        1          -0.005860932   -0.012707091    0.028652709
      6        6          -0.014418320   -0.015376723   -0.010023217
      7        1           0.011753534    0.005170344   -0.002373500
      8        6           0.003776748    0.010056292    0.012842219
      9        8          -0.071802707    0.102948042   -0.083375671
     10        8           0.020635029    0.004084774    0.126421382
     11        8           0.014899381   -0.102332979   -0.009845494
     12        1          -0.055401031   -0.010441190   -0.018021538
     13        1          -0.047002164    0.012100241    0.019591349
     14        1           0.012974109    0.005958489    0.002266886
     15        1           0.002464097    0.016221478   -0.004355806
     16        8           0.004960756   -0.006774157   -0.015387535
     17        8          -0.038874824   -0.039695645    0.015781167
     18        1           0.012547172    0.009193579   -0.009855787
 -------------------------------------------------------------------
 Cartesian Forces:  Max     0.149257919 RMS     0.040374005

 GradGradGradGradGradGradGradGradGradGradGradGradGradGradGradGradGradGrad
 Berny optimization.
 FormGI is forming the generalized inverse of G from B-inverse, IUseBI=4.
 Internal  Forces:  Max     0.150625029 RMS     0.034308463
 Search for a local minimum.
 Step number   1 out of a maximum of   89
 All quantities printed in internal units (Hartrees-Bohrs-Radians)
 Mixed Optimization -- RFO/linear search
 Second derivative matrix not updated -- first step.
 ITU=  0
     Eigenvalues ---    0.00230   0.00494   0.00643   0.00781   0.01312
     Eigenvalues ---    0.02084   0.03485   0.04595   0.04633   0.04991
     Eigenvalues ---    0.06091   0.06380   0.07147   0.09076   0.09748
     Eigenvalues ---    0.10314   0.10825   0.12106   0.12376   0.13408
     Eigenvalues ---    0.14506   0.16000   0.16000   0.16000   0.20521
     Eigenvalues ---    0.21980   0.22069   0.22188   0.23065   0.24993
     Eigenvalues ---    0.25000   0.25028   0.28348   0.31688   0.31957
     Eigenvalues ---    0.33359   0.34649   0.35881   0.41175   0.43937
     Eigenvalues ---    0.46752   0.52002   0.62622   0.63942   0.74163
     Eigenvalues ---    0.83431   1.02045   1.22029
 RFO step:  Lambda=-1.24940326D-01 EMin= 2.30000000D-03
 Linear search not attempted -- first point.
 Maximum step size (   0.300) exceeded in Quadratic search.
    -- Step size scaled by   0.674
 Iteration  1 RMS(Cart)=  0.06447736 RMS(Int)=  0.00146170
 Iteration  2 RMS(Cart)=  0.00198640 RMS(Int)=  0.00025897
 Iteration  3 RMS(Cart)=  0.00000503 RMS(Int)=  0.00025896
 Iteration  4 RMS(Cart)=  0.00000000 RMS(Int)=  0.00025896
 Variable       Old X    -DE/DX   Delta X   Delta X   Delta X     New X
                                 (Linear)    (Quad)   (Total)
    R1        3.06992   0.13174   0.00000   0.14979   0.14979   3.21971
    R2        2.64625   0.15063   0.00000   0.07543   0.07543   2.72168
    R3        2.79816   0.14922   0.00000   0.10479   0.10479   2.90295
    R4        2.84925   0.12293   0.00000   0.09556   0.09556   2.94481
    R5        2.08426  -0.00387   0.00000  -0.00568  -0.00568   2.07857
    R6        2.79548   0.00170   0.00000   0.00243   0.00243   2.79791
    R7        2.18085  -0.02588   0.00000  -0.04269  -0.04269   2.13816
    R8        2.77567  -0.01667   0.00000  -0.02322  -0.02322   2.75246
    R9        1.93230  -0.00442   0.00000  -0.00528  -0.00528   1.92702
   R10        2.99136  -0.02983   0.00000  -0.05356  -0.05356   2.93780
   R11        2.10923  -0.00330   0.00000  -0.00499  -0.00499   2.10423
   R12        2.11418  -0.01204   0.00000  -0.01836  -0.01836   2.09581
   R13        2.27831  -0.01671   0.00000  -0.00983  -0.00983   2.26848
   R14        2.69988  -0.03450   0.00000  -0.04330  -0.04330   2.65657
   R15        1.75624   0.04910   0.00000   0.04403   0.04403   1.80027
   R16        1.74651   0.05658   0.00000   0.04986   0.04986   1.79637
   R17        1.84597  -0.00009   0.00000  -0.00009  -0.00009   1.84588
    A1        1.95600   0.00895   0.00000   0.01905   0.01911   1.97511
    A2        1.91144  -0.01726   0.00000  -0.03774  -0.03773   1.87371
    A3        1.80922  -0.00226   0.00000  -0.00653  -0.00664   1.80257
    A4        1.96339   0.00443   0.00000   0.01018   0.01027   1.97366
    A5        1.94802   0.00011   0.00000   0.00492   0.00485   1.95286
    A6        1.86767   0.00502   0.00000   0.00764   0.00728   1.87495
    A7        1.99599  -0.00224   0.00000  -0.00713  -0.00742   1.98857
    A8        1.87101   0.00431   0.00000   0.01252   0.01251   1.88352
    A9        1.89489  -0.00436   0.00000  -0.01217  -0.01256   1.88233
   A10        1.82221   0.00351   0.00000   0.01320   0.01323   1.83545
   A11        2.01632  -0.00707   0.00000  -0.02558  -0.02603   1.99029
   A12        1.85080   0.00822   0.00000   0.02679   0.02683   1.87763
   A13        2.05204  -0.01930   0.00000  -0.03704  -0.03709   2.01495
   A14        1.86569   0.01514   0.00000   0.03379   0.03347   1.89916
   A15        1.99714  -0.00284   0.00000  -0.01413  -0.01387   1.98326
   A16        1.99704  -0.01903   0.00000  -0.03626  -0.03612   1.96092
   A17        1.86028   0.01850   0.00000   0.04906   0.04874   1.90902
   A18        1.81669   0.01327   0.00000   0.03097   0.03028   1.84698
   A19        1.93919  -0.00339   0.00000  -0.01347  -0.01308   1.92611
   A20        1.98064  -0.00458   0.00000  -0.02038  -0.02026   1.96037
   A21        1.85894  -0.00173   0.00000  -0.00197  -0.00313   1.85581
   A22        2.13685   0.00982   0.00000   0.01773   0.01770   2.15455
   A23        2.04799  -0.01775   0.00000  -0.03179  -0.03182   2.01617
   A24        2.09786   0.00801   0.00000   0.01448   0.01445   2.11231
   A25        1.83165   0.03048   0.00000   0.07205   0.07205   1.90370
   A26        1.82217   0.02893   0.00000   0.06840   0.06840   1.89057
   A27        1.72093   0.03354   0.00000   0.07928   0.07928   1.80021
    D1        2.96254   0.00530   0.00000   0.01793   0.01775   2.98029
    D2        0.95161  -0.00056   0.00000  -0.00245  -0.00251   0.94910
    D3       -1.04075  -0.01016   0.00000  -0.03399  -0.03389  -1.07464
    D4        0.77089   0.00603   0.00000   0.01925   0.01926   0.79015
    D5       -1.24003   0.00017   0.00000  -0.00113  -0.00101  -1.24104
    D6        3.05079  -0.00943   0.00000  -0.03267  -0.03239   3.01840
    D7       -1.21748   0.00871   0.00000   0.02973   0.02951  -1.18797
    D8        3.05478   0.00286   0.00000   0.00936   0.00924   3.06402
    D9        1.06242  -0.00675   0.00000  -0.02219  -0.02214   1.04028
   D10        3.04198   0.00035   0.00000  -0.00312  -0.00310   3.03888
   D11        0.85459  -0.00144   0.00000  -0.00674  -0.00672   0.84787
   D12       -1.29090  -0.00786   0.00000  -0.02462  -0.02466  -1.31557
   D13       -2.80244  -0.00629   0.00000  -0.00959  -0.00962  -2.81207
   D14       -0.69388   0.00309   0.00000   0.01176   0.01173  -0.68215
   D15        1.46113   0.01207   0.00000   0.03270   0.03276   1.49390
   D16       -2.87136   0.00175   0.00000   0.00265   0.00279  -2.86857
   D17       -0.59798  -0.00420   0.00000  -0.01654  -0.01678  -0.61476
   D18        1.28791   0.00038   0.00000  -0.00217  -0.00201   1.28591
   D19       -2.72190  -0.00557   0.00000  -0.02136  -0.02158  -2.74347
   D20       -0.84953   0.00274   0.00000   0.00751   0.00778  -0.84176
   D21        1.42384  -0.00321   0.00000  -0.01168  -0.01180   1.41205
   D22       -3.05753   0.00166   0.00000   0.00473   0.00487  -3.05266
   D23        1.07497   0.00478   0.00000   0.00944   0.01030   1.08528
   D24       -0.88612  -0.00622   0.00000  -0.02087  -0.02130  -0.90741
   D25        1.01474   0.00052   0.00000   0.00415   0.00390   1.01865
   D26       -1.13594   0.00364   0.00000   0.00885   0.00933  -1.12660
   D27       -3.09703  -0.00736   0.00000  -0.02145  -0.02227  -3.11929
   D28        0.25306  -0.00466   0.00000  -0.02001  -0.01992   0.23314
   D29       -2.92200  -0.00187   0.00000  -0.00552  -0.00542  -2.92742
   D30        2.36060   0.00337   0.00000   0.00811   0.00814   2.36874
   D31       -0.81445   0.00616   0.00000   0.02260   0.02264  -0.79181
   D32       -1.82841  -0.00451   0.00000  -0.01839  -0.01853  -1.84693
   D33        1.27973  -0.00172   0.00000  -0.00390  -0.00403   1.27570
   D34       -0.19941   0.00136   0.00000   0.00628   0.00629  -0.19312
   D35        2.90950   0.00413   0.00000   0.02052   0.02050   2.93001
         Item               Value     Threshold  Converged?
 Maximum Force            0.150625     0.000450     NO 
 RMS     Force            0.034308     0.000300     NO 
 Maximum Displacement     0.263647     0.001800     NO 
 RMS     Displacement     0.065039     0.001200     NO 
 Predicted change in Energy=-6.207299D-02
 GradGradGradGradGradGradGradGradGradGradGradGradGradGradGradGradGradGrad

                          Input orientation:                          
 ---------------------------------------------------------------------
 Center     Atomic      Atomic             Coordinates (Angstroms)
 Number     Number       Type             X           Y           Z
 ---------------------------------------------------------------------
      1         15           0       -2.394780    1.139596    0.232525
      2          6           0       -0.707393    1.142690   -0.003375
      3          1           0       -0.154783    0.522991    0.718048
      4          7           0       -0.219087    2.522854    0.217660
      5          1           0       -0.507990    0.878809   -1.085418
      6          6           0        1.122302    2.799088   -0.278198
      7          1           0       -0.922951    3.178788   -0.120253
      8          6           0        1.611126    4.225075    0.101865
      9          8           0       -3.081846    2.112550   -0.577178
     10          8           0       -2.647519    1.321491    1.736812
     11          8           0       -2.805185   -0.317642   -0.136812
     12          1           0       -3.738650   -0.328848   -0.316131
     13          1           0       -3.583737    1.415101    1.886119
     14          1           0        1.142724    2.664322   -1.383337
     15          1           0        1.770611    2.004889    0.144830
     16          8           0        1.064489    4.916578    0.916752
     17          8           0        2.771132    4.664050   -0.559917
     18          1           0        3.099670    3.852972   -0.993909
 ---------------------------------------------------------------------
                    Distance matrix (angstroms):
                    1          2          3          4          5
     1  P    0.000000
     2  C    1.703799   0.000000
     3  H    2.373504   1.099934   0.000000
     4  N    2.578229   1.480592   2.062517   0.000000
     5  H    2.316238   1.131464   1.871858   2.117631   0.000000
     6  C    3.922323   2.483338   2.793577   1.456539   2.645170
     7  H    2.539495   2.050810   2.888960   1.019735   2.528565
     8  C    5.058116   3.858459   4.147715   2.502128   4.134947
     9  O    1.440249   2.628289   3.573794   2.999251   2.899165
    10  O    1.536177   2.612337   2.808774   3.106184   3.569108
    11  O    1.558327   2.559512   2.908965   3.857716   2.758342
    12  H    2.064785   3.384044   3.826128   4.561191   3.533751
    13  H    2.055211   3.452209   3.730680   3.915577   4.310204
    14  H    4.177288   2.764524   3.268737   2.106594   2.449830
    15  H    4.255220   2.627900   2.496346   2.057301   2.823754
    16  O    5.167233   4.269477   4.563958   2.804676   4.773359
    17  O    6.303680   4.980949   5.229010   3.759090   5.035558
    18  H    6.249442   4.777083   4.960951   3.775085   4.676455
                    6          7          8          9         10
     6  C    0.000000
     7  H    2.086188   0.000000
     8  C    1.554618   2.750563   0.000000
     9  O    4.270314   2.450811   5.191132   0.000000
    10  O    4.522732   3.142034   5.407394   2.483740   0.000000
    11  O    5.015889   3.970907   6.340114   2.485215   2.494409
    12  H    5.780508   4.502226   7.037971   2.541645   2.851098
    13  H    5.361575   3.770399   6.169774   2.608862   0.952660
    14  H    1.113513   2.475292   2.204808   4.336051   5.089643
    15  H    1.109057   2.950183   2.226321   4.907058   4.745662
    16  O    2.432080   2.836408   1.200428   5.223648   5.232223
    17  O    2.505213   4.005690   1.405798   6.384967   6.768267
    18  H    2.352212   4.171244   1.885457   6.435362   6.848023
                   11         12         13         14         15
    11  O    0.000000
    12  H    0.950598   0.000000
    13  H    2.775029   2.813407   0.000000
    14  H    5.102148   5.824586   5.881270   0.000000
    15  H    5.139200   6.000897   5.661182   1.778872   0.000000
    16  O    6.594045   7.218354   5.899663   3.220123   3.093930
    17  O    7.489431   8.207662   7.544741   2.707147   2.927259
    18  H    7.279832   8.044229   7.675006   2.322538   2.545296
                   16         17         18
    16  O    0.000000
    17  O    2.270892   0.000000
    18  H    2.987281   0.976798   0.000000
 Stoichiometry    C3H8NO5P
 Framework group  C1[X(C3H8NO5P)]
 Deg. of freedom    48
 Full point group                 C1      NOp   1
 Largest Abelian subgroup         C1      NOp   1
 Largest concise Abelian subgroup C1      NOp   1
                         Standard orientation:                         
 ---------------------------------------------------------------------
 Center     Atomic      Atomic             Coordinates (Angstroms)
 Number     Number       Type             X           Y           Z
 ---------------------------------------------------------------------
      1         15           0        1.995367    0.039590    0.087297
      2          6           0        0.631768   -0.842472   -0.427967
      3          1           0        0.604195   -1.028839   -1.511647
      4          7           0       -0.571549   -0.027758   -0.144372
      5          1           0        0.566366   -1.779645    0.202620
      6          6           0       -1.837744   -0.746537   -0.184504
      7          1           0       -0.422130    0.489018    0.721928
      8          6           0       -3.059485    0.197442   -0.002600
      9          8           0        1.913585    0.456528    1.463448
     10          8           0        2.177487    1.212712   -0.887617
     11          8           0        3.173820   -0.951959   -0.150325
     12          1           0        3.915487   -0.664912    0.370416
     13          1           0        2.878071    1.775069   -0.570606
     14          1           0       -1.838867   -1.537060    0.599704
     15          1           0       -1.854957   -1.274600   -1.159626
     16          8           0       -2.988618    1.393379   -0.078374
     17          8           0       -4.288084   -0.441788    0.238646
     18          1           0       -4.090576   -1.380137    0.052563
 ---------------------------------------------------------------------
 Rotational constants (GHZ):           3.1308379           0.4500452           0.4313647
 Standard basis: 6-31G(d) (5D, 7F)
 There are   170 symmetry adapted cartesian basis functions of A   symmetry.
 There are   160 symmetry adapted basis functions of A   symmetry.
   160 basis functions,   336 primitive gaussians,   170 cartesian basis functions
    44 alpha electrons       44 beta electrons
       nuclear repulsion energy       675.7451439803 Hartrees.
 NAtoms=   18 NActive=   18 NUniq=   18 SFac= 1.00D+00 NAtFMM=   60 NAOKFM=F Big=F
 Integral buffers will be    131072 words long.
 Raffenetti 2 integral format.
 Two-electron integral symmetry is turned on.
 One-electron integrals computed using PRISM.
 NBasis=   160 RedAO= T EigKep=  4.24D-03  NBF=   160
 NBsUse=   160 1.00D-06 EigRej= -1.00D+00 NBFU=   160
 Initial guess from the checkpoint file:  "/scratch/gvallver/506634/Gau-64578.chk"
 B after Tr=     0.000000   -0.000000   -0.000000
         Rot=    0.999994    0.002212   -0.001950    0.001588 Ang=   0.38 deg.
 ExpMin= 9.98D-02 ExpMax= 1.94D+04 ExpMxC= 2.91D+03 IAcc=3 IRadAn=         5 AccDes= 0.00D+00
 Harris functional with IExCor=  402 and IRadAn=       5 diagonalized for initial guess.
 HarFok:  IExCor=  402 AccDes= 0.00D+00 IRadAn=         5 IDoV= 1 UseB2=F ITyADJ=14
 ICtDFT=  3500011 ScaDFX=  1.000000  1.000000  1.000000  1.000000
 FoFCou: FMM=F IPFlag=           0 FMFlag=      100000 FMFlg1=           0
         NFxFlg=           0 DoJE=T BraDBF=F KetDBF=T FulRan=T
         wScrn=  0.000000 ICntrl=       500 IOpCl=  0 I1Cent=   200000004 NGrid=           0
         NMat0=    1 NMatS0=      1 NMatT0=    0 NMatD0=    1 NMtDS0=    0 NMtDT0=    0
 Petite list used in FoFCou.
 Keep R1 ints in memory in canonical form, NReq=86944357.
 Requested convergence on RMS density matrix=1.00D-08 within 128 cycles.
 Requested convergence on MAX density matrix=1.00D-06.
 Requested convergence on             energy=1.00D-06.
 No special actions if energy rises.
 Integral accuracy reduced to 1.0D-05 until final iterations.
 Initial convergence to 1.0D-05 achieved.  Increase integral accuracy.
 SCF Done:  E(RB3LYP) =  -891.360055443     A.U. after   12 cycles
            NFock= 12  Conv=0.96D-08     -V/T= 2.0042
 Calling FoFJK, ICntrl=      2127 FMM=F ISym2X=0 I1Cent= 0 IOpClX= 0 NMat=1 NMatS=1 NMatT=0.
 ***** Axes restored to original set *****
 -------------------------------------------------------------------
 Center     Atomic                   Forces (Hartrees/Bohr)
 Number     Number              X              Y              Z
 -------------------------------------------------------------------
      1       15          -0.004312256    0.001038334   -0.021746484
      2        6           0.076952880    0.022126654   -0.014076338
      3        1          -0.002188267   -0.008704566   -0.009721805
      4        7          -0.006095327    0.005941968    0.012315894
      5        1          -0.004236351   -0.011188012    0.017846540
      6        6          -0.013802486   -0.008990223   -0.006989389
      7        1           0.007352927    0.003215254   -0.002358392
      8        6           0.010148464    0.002506367    0.002717323
      9        8          -0.035550842    0.049719781   -0.039225738
     10        8           0.010105434   -0.001968293    0.064398825
     11        8           0.006969143   -0.051265845   -0.001963838
     12        1          -0.021156669   -0.006033345   -0.009427225
     13        1          -0.017975745    0.006750706    0.009906089
     14        1           0.008489082    0.003704677    0.001122045
     15        1           0.002983540    0.009880308   -0.001735035
     16        8           0.001560209    0.000502068   -0.007692433
     17        8          -0.025066940   -0.024912040    0.012212895
     18        1           0.005823202    0.007676207   -0.005582933
 -------------------------------------------------------------------
 Cartesian Forces:  Max     0.076952880 RMS     0.020860364

 GradGradGradGradGradGradGradGradGradGradGradGradGradGradGradGradGradGrad
 Berny optimization.
 Using GEDIIS/GDIIS optimizer.
 FormGI is forming the generalized inverse of G from B-inverse, IUseBI=4.
 Internal  Forces:  Max     0.074623347 RMS     0.016893307
 Search for a local minimum.
 Step number   2 out of a maximum of   89
 All quantities printed in internal units (Hartrees-Bohrs-Radians)
 Mixed Optimization -- RFO/linear search
 Update second derivatives using D2CorX and points    1    2
 DE= -6.24D-02 DEPred=-6.21D-02 R= 1.00D+00
 TightC=F SS=  1.41D+00  RLast= 3.16D-01 DXNew= 5.0454D-01 9.4909D-01
 Trust test= 1.00D+00 RLast= 3.16D-01 DXMaxT set to 5.05D-01
 ITU=  1  0
 Use linear search instead of GDIIS.
     Eigenvalues ---    0.00230   0.00491   0.00643   0.00781   0.01312
     Eigenvalues ---    0.02189   0.03485   0.04634   0.04795   0.04991
     Eigenvalues ---    0.06248   0.06256   0.07139   0.09069   0.09828
     Eigenvalues ---    0.09979   0.10950   0.11856   0.12493   0.13243
     Eigenvalues ---    0.14197   0.15948   0.16000   0.16738   0.20296
     Eigenvalues ---    0.22016   0.22055   0.22230   0.23145   0.24919
     Eigenvalues ---    0.25010   0.25326   0.28282   0.31699   0.31960
     Eigenvalues ---    0.33352   0.34628   0.35868   0.40304   0.43937
     Eigenvalues ---    0.47635   0.52021   0.62869   0.64578   0.71174
     Eigenvalues ---    0.80267   1.02115   1.18118
 RFO step:  Lambda=-2.11892359D-02 EMin= 2.29975477D-03
 Quartic linear search produced a step of  1.36481.
 Iteration  1 RMS(Cart)=  0.12666229 RMS(Int)=  0.00929764
 Iteration  2 RMS(Cart)=  0.01294141 RMS(Int)=  0.00295101
 Iteration  3 RMS(Cart)=  0.00012667 RMS(Int)=  0.00294989
 Iteration  4 RMS(Cart)=  0.00000032 RMS(Int)=  0.00294989
 Variable       Old X    -DE/DX   Delta X   Delta X   Delta X     New X
                                 (Linear)    (Quad)   (Total)
    R1        3.21971   0.06160   0.20444  -0.02062   0.18382   3.40353
    R2        2.72168   0.07260   0.10295  -0.01679   0.08616   2.80784
    R3        2.90295   0.07462   0.14302  -0.01148   0.13154   3.03450
    R4        2.94481   0.06002   0.13042  -0.01325   0.11717   3.06199
    R5        2.07857  -0.00257  -0.00776  -0.00473  -0.01249   2.06608
    R6        2.79791  -0.00268   0.00332  -0.02227  -0.01894   2.77897
    R7        2.13816  -0.01520  -0.05827  -0.02383  -0.08210   2.05606
    R8        2.75246  -0.00889  -0.03168  -0.00504  -0.03673   2.71573
    R9        1.92702  -0.00223  -0.00720  -0.00015  -0.00735   1.91967
   R10        2.93780  -0.01502  -0.07310  -0.01164  -0.08474   2.85307
   R11        2.10423  -0.00141  -0.00682   0.00111  -0.00570   2.09853
   R12        2.09581  -0.00599  -0.02506  -0.00185  -0.02691   2.06890
   R13        2.26848  -0.00564  -0.01341   0.00741  -0.00600   2.26248
   R14        2.65657  -0.02438  -0.05910  -0.03985  -0.09896   2.55762
   R15        1.80027   0.01988   0.06009  -0.01963   0.04046   1.84072
   R16        1.79637   0.02262   0.06806  -0.02339   0.04467   1.84104
   R17        1.84588  -0.00193  -0.00013  -0.00816  -0.00829   1.83759
    A1        1.97511   0.00520   0.02608   0.01669   0.04394   2.01905
    A2        1.87371  -0.01140  -0.05149  -0.05442  -0.10715   1.76657
    A3        1.80257  -0.00380  -0.00907  -0.03980  -0.05115   1.75143
    A4        1.97366   0.00404   0.01401   0.03296   0.04745   2.02111
    A5        1.95286   0.00247   0.00662   0.04787   0.05423   2.00709
    A6        1.87495   0.00229   0.00994  -0.01398  -0.01062   1.86433
    A7        1.98857  -0.00231  -0.01013  -0.03728  -0.05104   1.93754
    A8        1.88352  -0.00046   0.01707  -0.00432   0.01316   1.89668
    A9        1.88233  -0.00298  -0.01714  -0.02977  -0.05192   1.83041
   A10        1.83545   0.00512   0.01806   0.07327   0.09130   1.92675
   A11        1.99029  -0.00584  -0.03553  -0.07769  -0.12457   1.86571
   A12        1.87763   0.00766   0.03662   0.09088   0.12733   2.00496
   A13        2.01495  -0.01036  -0.05062  -0.02397  -0.07607   1.93888
   A14        1.89916   0.00821   0.04568   0.00965   0.05021   1.94937
   A15        1.98326  -0.00225  -0.01893  -0.04743  -0.06568   1.91758
   A16        1.96092  -0.00777  -0.04929   0.01116  -0.03674   1.92419
   A17        1.90902   0.01080   0.06652   0.07906   0.14294   2.05196
   A18        1.84698   0.00687   0.04133   0.02323   0.05854   1.90552
   A19        1.92611  -0.00334  -0.01785  -0.03397  -0.05162   1.87449
   A20        1.96037  -0.00448  -0.02766  -0.07154  -0.09952   1.86085
   A21        1.85581  -0.00096  -0.00427  -0.00313  -0.01944   1.83637
   A22        2.15455   0.00719   0.02415   0.02394   0.04396   2.19851
   A23        2.01617  -0.00849  -0.04343  -0.00238  -0.04974   1.96643
   A24        2.11231   0.00135   0.01972  -0.01917  -0.00325   2.10906
   A25        1.90370   0.01326   0.09834   0.00534   0.10368   2.00738
   A26        1.89057   0.01199   0.09335  -0.00262   0.09073   1.98130
   A27        1.80021   0.01947   0.10821   0.06880   0.17701   1.97722
    D1        2.98029   0.00404   0.02423   0.05051   0.07152   3.05181
    D2        0.94910  -0.00066  -0.00343  -0.01577  -0.01945   0.92965
    D3       -1.07464  -0.00785  -0.04625  -0.10456  -0.14788  -1.22252
    D4        0.79015   0.00379   0.02628   0.03730   0.06261   0.85276
    D5       -1.24104  -0.00091  -0.00138  -0.02898  -0.02835  -1.26940
    D6        3.01840  -0.00810  -0.04420  -0.11777  -0.15678   2.86162
    D7       -1.18797   0.00738   0.04027   0.09187   0.12721  -1.06077
    D8        3.06402   0.00268   0.01262   0.02558   0.03624   3.10026
    D9        1.04028  -0.00452  -0.03021  -0.06320  -0.09219   0.94809
   D10        3.03888   0.00078  -0.00423  -0.01904  -0.02447   3.01441
   D11        0.84787  -0.00018  -0.00917  -0.02255  -0.03113   0.81674
   D12       -1.31557  -0.00768  -0.03366  -0.09537  -0.12841  -1.44398
   D13       -2.81207  -0.00394  -0.01313   0.01211  -0.00062  -2.81269
   D14       -0.68215   0.00126   0.01601   0.03277   0.04828  -0.63387
   D15        1.49390   0.00960   0.04472   0.09614   0.14095   1.63484
   D16       -2.86857   0.00101   0.00381  -0.02708  -0.02229  -2.89085
   D17       -0.61476  -0.00334  -0.02290  -0.10384  -0.12838  -0.74315
   D18        1.28591   0.00115  -0.00274  -0.02142  -0.02232   1.26359
   D19       -2.74347  -0.00321  -0.02945  -0.09818  -0.12841  -2.87189
   D20       -0.84176   0.00124   0.01061  -0.01724  -0.00552  -0.84728
   D21        1.41205  -0.00311  -0.01610  -0.09400  -0.11162   1.30043
   D22       -3.05266   0.00073   0.00665  -0.04216  -0.03291  -3.08557
   D23        1.08528   0.00258   0.01406  -0.06305  -0.04340   1.04188
   D24       -0.90741  -0.00489  -0.02907  -0.10838  -0.13941  -1.04683
   D25        1.01865   0.00041   0.00533   0.00931   0.01309   1.03174
   D26       -1.12660   0.00226   0.01274  -0.01158   0.00260  -1.12400
   D27       -3.11929  -0.00521  -0.03039  -0.05691  -0.09341   3.07048
   D28        0.23314  -0.00371  -0.02719  -0.15702  -0.18339   0.04975
   D29       -2.92742  -0.00146  -0.00740  -0.01357  -0.01916  -2.94658
   D30        2.36874   0.00234   0.01112  -0.07190  -0.06336   2.30538
   D31       -0.79181   0.00460   0.03090   0.07155   0.10087  -0.69094
   D32       -1.84693  -0.00399  -0.02528  -0.14465  -0.16966  -2.01659
   D33        1.27570  -0.00173  -0.00550  -0.00120  -0.00543   1.27027
   D34       -0.19312   0.00156   0.00859   0.06526   0.07597  -0.11715
   D35        2.93001   0.00384   0.02798   0.20545   0.23132  -3.12186
         Item               Value     Threshold  Converged?
 Maximum Force            0.074623     0.000450     NO 
 RMS     Force            0.016893     0.000300     NO 
 Maximum Displacement     0.469985     0.001800     NO 
 RMS     Displacement     0.129338     0.001200     NO 
 Predicted change in Energy=-2.359017D-02
 GradGradGradGradGradGradGradGradGradGradGradGradGradGradGradGradGradGrad

                          Input orientation:                          
 ---------------------------------------------------------------------
 Center     Atomic      Atomic             Coordinates (Angstroms)
 Number     Number       Type             X           Y           Z
 ---------------------------------------------------------------------
      1         15           0       -2.484641    1.185782    0.191042
      2          6           0       -0.698998    1.239593   -0.037955
      3          1           0       -0.197525    0.525940    0.621274
      4          7           0       -0.230290    2.606427    0.235261
      5          1           0       -0.537669    0.895654   -1.057496
      6          6           0        1.110506    2.798967   -0.244800
      7          1           0       -0.846544    3.303277   -0.172866
      8          6           0        1.600751    4.180975    0.114566
      9          8           0       -3.262104    2.198774   -0.568646
     10          8           0       -2.597235    1.273690    1.790463
     11          8           0       -2.784072   -0.353714   -0.216106
     12          1           0       -3.717055   -0.522131   -0.440412
     13          1           0       -3.503110    1.371758    2.134824
     14          1           0        1.293561    2.653532   -1.330405
     15          1           0        1.777311    2.089993    0.256549
     16          8           0        0.999895    4.996221    0.753131
     17          8           0        2.754663    4.504958   -0.514165
     18          1           0        3.140686    3.765658   -1.014174
 ---------------------------------------------------------------------
                    Distance matrix (angstroms):
                    1          2          3          4          5
     1  P    0.000000
     2  C    1.801071   0.000000
     3  H    2.418965   1.093325   0.000000
     4  N    2.665011   1.470567   2.116248   0.000000
     5  H    2.331035   1.088020   1.752329   2.166206   0.000000
     6  C    3.964519   2.397652   2.761826   1.437103   2.645668
     7  H    2.701773   2.073346   2.960657   1.015843   2.583530
     8  C    5.066306   3.736821   4.104855   2.417949   4.091443
     9  O    1.485843   2.787683   3.688622   3.162965   3.059354
    10  O    1.605787   2.635826   2.772137   3.130059   3.534911
    11  O    1.620333   2.630190   2.857485   3.935476   2.704659
    12  H    2.198760   3.517714   3.822659   4.733069   3.535449
    13  H    2.202306   3.549856   3.732712   3.980464   4.383084
    14  H    4.329423   2.764045   3.249467   2.185327   2.553042
    15  H    4.357307   2.634770   2.545439   2.073070   2.917583
    16  O    5.193976   4.198132   4.629754   2.737273   4.738896
    17  O    6.242159   4.776731   5.083033   3.616076   4.915459
    18  H    6.304967   4.698636   4.930935   3.777352   4.665737
                    6          7          8          9         10
     6  C    0.000000
     7  H    2.022263   0.000000
     8  C    1.509778   2.615764   0.000000
     9  O    4.425475   2.685423   5.295588   0.000000
    10  O    4.496234   3.322470   5.374386   2.619776   0.000000
    11  O    5.010784   4.138776   6.316599   2.620687   2.590303
    12  H    5.862875   4.790111   7.120833   2.761657   3.075024
    13  H    5.383771   4.014168   6.166242   2.837392   0.974069
    14  H    1.110495   2.518356   2.124944   4.641246   5.175141
    15  H    1.094817   2.922511   2.103222   5.107689   4.707005
    16  O    2.415787   2.670743   1.197255   5.266635   5.279455
    17  O    2.384579   3.811721   1.353433   6.443830   6.662974
    18  H    2.376564   4.101171   1.953956   6.606765   6.855628
                   11         12         13         14         15
    11  O    0.000000
    12  H    0.974236   0.000000
    13  H    3.003522   3.203815   0.000000
    14  H    5.187705   5.998600   6.054652   0.000000
    15  H    5.196279   6.123479   5.650365   1.752145   0.000000
    16  O    6.624171   7.357063   5.943304   3.148898   3.049121
    17  O    7.373813   8.195133   7.482901   2.495765   2.716851
    18  H    7.260090   8.108203   7.732204   2.179151   2.506269
                   16         17         18
    16  O    0.000000
    17  O    2.219592   0.000000
    18  H    3.036551   0.972413   0.000000
 Stoichiometry    C3H8NO5P
 Framework group  C1[X(C3H8NO5P)]
 Deg. of freedom    48
 Full point group                 C1      NOp   1
 Largest Abelian subgroup         C1      NOp   1
 Largest concise Abelian subgroup C1      NOp   1
                         Standard orientation:                         
 ---------------------------------------------------------------------
 Center     Atomic      Atomic             Coordinates (Angstroms)
 Number     Number       Type             X           Y           Z
 ---------------------------------------------------------------------
      1         15           0        2.020955    0.071002    0.123165
      2          6           0        0.537549   -0.855798   -0.306258
      3          1           0        0.591382   -1.228179   -1.332802
      4          7           0       -0.630565    0.021971   -0.140125
      5          1           0        0.552891   -1.725782    0.346949
      6          6           0       -1.851474   -0.736082   -0.142012
      7          1           0       -0.567859    0.573395    0.710719
      8          6           0       -3.041033    0.189021   -0.049470
      9          8           0        2.007358    0.726319    1.456621
     10          8           0        2.149967    1.056064   -1.138405
     11          8           0        3.146925   -1.079210   -0.063068
     12          1           0        3.985330   -0.879733    0.391269
     13          1           0        2.841458    1.737588   -1.059806
     14          1           0       -1.974392   -1.514390    0.640501
     15          1           0       -1.942510   -1.268922   -1.094072
     16          8           0       -3.001562    1.385486   -0.031214
     17          8           0       -4.197232   -0.470851    0.194567
     18          1           0       -4.100571   -1.438112    0.169073
 ---------------------------------------------------------------------
 Rotational constants (GHZ):           2.9340222           0.4500112           0.4320827
 Standard basis: 6-31G(d) (5D, 7F)
 There are   170 symmetry adapted cartesian basis functions of A   symmetry.
 There are   160 symmetry adapted basis functions of A   symmetry.
   160 basis functions,   336 primitive gaussians,   170 cartesian basis functions
    44 alpha electrons       44 beta electrons
       nuclear repulsion energy       667.4128173202 Hartrees.
 NAtoms=   18 NActive=   18 NUniq=   18 SFac= 1.00D+00 NAtFMM=   60 NAOKFM=F Big=F
 Integral buffers will be    131072 words long.
 Raffenetti 2 integral format.
 Two-electron integral symmetry is turned on.
 One-electron integrals computed using PRISM.
 NBasis=   160 RedAO= T EigKep=  3.58D-03  NBF=   160
 NBsUse=   160 1.00D-06 EigRej= -1.00D+00 NBFU=   160
 Initial guess from the checkpoint file:  "/scratch/gvallver/506634/Gau-64578.chk"
 B after Tr=    -0.000000    0.000000    0.000000
         Rot=    0.998643    0.051984   -0.003080    0.001135 Ang=   5.97 deg.
 ExpMin= 9.98D-02 ExpMax= 1.94D+04 ExpMxC= 2.91D+03 IAcc=3 IRadAn=         5 AccDes= 0.00D+00
 Harris functional with IExCor=  402 and IRadAn=       5 diagonalized for initial guess.
 HarFok:  IExCor=  402 AccDes= 0.00D+00 IRadAn=         5 IDoV= 1 UseB2=F ITyADJ=14
 ICtDFT=  3500011 ScaDFX=  1.000000  1.000000  1.000000  1.000000
 FoFCou: FMM=F IPFlag=           0 FMFlag=      100000 FMFlg1=           0
         NFxFlg=           0 DoJE=T BraDBF=F KetDBF=T FulRan=T
         wScrn=  0.000000 ICntrl=       500 IOpCl=  0 I1Cent=   200000004 NGrid=           0
         NMat0=    1 NMatS0=      1 NMatT0=    0 NMatD0=    1 NMtDS0=    0 NMtDT0=    0
 Petite list used in FoFCou.
 Keep R1 ints in memory in canonical form, NReq=86944357.
 Requested convergence on RMS density matrix=1.00D-08 within 128 cycles.
 Requested convergence on MAX density matrix=1.00D-06.
 Requested convergence on             energy=1.00D-06.
 No special actions if energy rises.
 Integral accuracy reduced to 1.0D-05 until final iterations.
 Initial convergence to 1.0D-05 achieved.  Increase integral accuracy.
 SCF Done:  E(RB3LYP) =  -891.389285195     A.U. after   14 cycles
            NFock= 14  Conv=0.79D-08     -V/T= 2.0048
 Calling FoFJK, ICntrl=      2127 FMM=F ISym2X=0 I1Cent= 0 IOpClX= 0 NMat=1 NMatS=1 NMatT=0.
 ***** Axes restored to original set *****
 -------------------------------------------------------------------
 Center     Atomic                   Forces (Hartrees/Bohr)
 Number     Number              X              Y              Z
 -------------------------------------------------------------------
      1       15          -0.002954271    0.004892158   -0.005680092
      2        6          -0.000329341    0.011687458    0.005914058
      3        1          -0.000088233   -0.000143190    0.002677238
      4        7           0.001730823   -0.015562769   -0.005690834
      5        1           0.003540035   -0.001758383   -0.010994013
      6        6           0.004201888   -0.001031855    0.009391034
      7        1          -0.002850700    0.000010448   -0.000465184
      8        6          -0.002127234    0.003268967   -0.019597225
      9        8          -0.003102812   -0.000827595    0.000511287
     10        8          -0.003934494   -0.003703272    0.013434465
     11        8          -0.003462977   -0.007962763    0.000553892
     12        1           0.002712676    0.002822963   -0.001192517
     13        1           0.002193753    0.002412896   -0.003097943
     14        1          -0.006060269   -0.001332248   -0.000815343
     15        1           0.001166893   -0.005063718    0.001599439
     16        8          -0.001527868    0.004475937    0.008694348
     17        8           0.014533157    0.009057739    0.002765255
     18        1          -0.003641027   -0.001242773    0.001992134
 -------------------------------------------------------------------
 Cartesian Forces:  Max     0.019597225 RMS     0.006073152

 GradGradGradGradGradGradGradGradGradGradGradGradGradGradGradGradGradGrad
 Berny optimization.
 Using GEDIIS/GDIIS optimizer.
 FormGI is forming the generalized inverse of G from B-inverse, IUseBI=4.
 Internal  Forces:  Max     0.015130182 RMS     0.004406563
 Search for a local minimum.
 Step number   3 out of a maximum of   89
 All quantities printed in internal units (Hartrees-Bohrs-Radians)
 Mixed Optimization -- RFO/linear search
 Update second derivatives using D2CorX and points    2    3
 DE= -2.92D-02 DEPred=-2.36D-02 R= 1.24D+00
 TightC=F SS=  1.41D+00  RLast= 7.82D-01 DXNew= 8.4853D-01 2.3464D+00
 Trust test= 1.24D+00 RLast= 7.82D-01 DXMaxT set to 8.49D-01
 ITU=  1  1  0
 Use linear search instead of GDIIS.
     Eigenvalues ---    0.00229   0.00569   0.00645   0.00780   0.01324
     Eigenvalues ---    0.02650   0.03481   0.04576   0.04863   0.04938
     Eigenvalues ---    0.05854   0.06415   0.06554   0.09051   0.09789
     Eigenvalues ---    0.09881   0.11021   0.11603   0.12721   0.13092
     Eigenvalues ---    0.13675   0.15981   0.16002   0.16300   0.19457
     Eigenvalues ---    0.21807   0.21960   0.22081   0.23432   0.24791
     Eigenvalues ---    0.25007   0.26166   0.28942   0.31796   0.31956
     Eigenvalues ---    0.33361   0.34294   0.36042   0.39153   0.43469
     Eigenvalues ---    0.43953   0.52021   0.62675   0.63929   0.67984
     Eigenvalues ---    0.79297   1.02334   1.17869
 RFO step:  Lambda=-9.63592470D-03 EMin= 2.29037739D-03
 Quartic linear search produced a step of -0.11887.
 Iteration  1 RMS(Cart)=  0.07944324 RMS(Int)=  0.01645789
 Iteration  2 RMS(Cart)=  0.02439687 RMS(Int)=  0.00451978
 Iteration  3 RMS(Cart)=  0.00078350 RMS(Int)=  0.00448475
 Iteration  4 RMS(Cart)=  0.00000325 RMS(Int)=  0.00448475
 Iteration  5 RMS(Cart)=  0.00000003 RMS(Int)=  0.00448475
 Variable       Old X    -DE/DX   Delta X   Delta X   Delta X     New X
                                 (Linear)    (Quad)   (Total)
    R1        3.40353   0.00912  -0.02185   0.06038   0.03853   3.44206
    R2        2.80784   0.00080  -0.01024   0.02179   0.01155   2.81938
    R3        3.03450   0.01035  -0.01564   0.04251   0.02688   3.06137
    R4        3.06199   0.00518  -0.01393   0.03431   0.02038   3.08237
    R5        2.06608   0.00167   0.00148   0.00154   0.00302   2.06910
    R6        2.77897  -0.00556   0.00225  -0.01762  -0.01537   2.76360
    R7        2.05606   0.01138   0.00976   0.01619   0.02595   2.08201
    R8        2.71573   0.00585   0.00437   0.00568   0.01005   2.72578
    R9        1.91967   0.00192   0.00087   0.00207   0.00295   1.92261
   R10        2.85307   0.01513   0.01007   0.03261   0.04268   2.89575
   R11        2.09853  -0.00003   0.00068  -0.00140  -0.00073   2.09780
   R12        2.06890   0.00472   0.00320   0.00666   0.00986   2.07876
   R13        2.26248   0.00845   0.00071   0.00558   0.00629   2.26878
   R14        2.55762   0.00895   0.01176  -0.00320   0.00856   2.56618
   R15        1.84072  -0.00289  -0.00481   0.00610   0.00129   1.84202
   R16        1.84104  -0.00281  -0.00531   0.00741   0.00210   1.84314
   R17        1.83759  -0.00152   0.00099  -0.00426  -0.00328   1.83432
    A1        2.01905   0.00112  -0.00522   0.01707   0.01170   2.03074
    A2        1.76657   0.00311   0.01274  -0.00594   0.00693   1.77349
    A3        1.75143   0.00010   0.00608  -0.00864  -0.00227   1.74916
    A4        2.02111  -0.00152  -0.00564   0.00308  -0.00273   2.01838
    A5        2.00709  -0.00107  -0.00645   0.00091  -0.00555   2.00154
    A6        1.86433  -0.00120   0.00126  -0.00958  -0.00761   1.85671
    A7        1.93754  -0.00333   0.00607  -0.02948  -0.02296   1.91458
    A8        1.89668   0.00510  -0.00156   0.02206   0.02040   1.91708
    A9        1.83041   0.00127   0.00617   0.00827   0.01491   1.84532
   A10        1.92675  -0.00120  -0.01085   0.00839  -0.00237   1.92438
   A11        1.86571   0.00138   0.01481  -0.01900  -0.00296   1.86275
   A12        2.00496  -0.00337  -0.01514   0.00730  -0.00813   1.99683
   A13        1.93888   0.00845   0.00904   0.01663   0.02583   1.96471
   A14        1.94937  -0.00498  -0.00597  -0.01150  -0.01710   1.93227
   A15        1.91758  -0.00033   0.00781  -0.00023   0.00765   1.92523
   A16        1.92419   0.00699   0.00437   0.01915   0.02334   1.94753
   A17        2.05196  -0.00668  -0.01699  -0.02305  -0.03987   2.01209
   A18        1.90552  -0.00288  -0.00696   0.00139  -0.00556   1.89996
   A19        1.87449  -0.00021   0.00614  -0.00809  -0.00175   1.87274
   A20        1.86085   0.00128   0.01183   0.00971   0.02145   1.88230
   A21        1.83637   0.00193   0.00231   0.00301   0.00624   1.84260
   A22        2.19851  -0.00393  -0.00523   0.01132  -0.01675   2.18176
   A23        1.96643   0.01022   0.00591   0.03954   0.02278   1.98920
   A24        2.10906  -0.00538   0.00039  -0.00215  -0.02484   2.08422
   A25        2.00738  -0.00383  -0.01232   0.00223  -0.01010   1.99728
   A26        1.98130  -0.00354  -0.01079   0.00105  -0.00973   1.97157
   A27        1.97722  -0.00745  -0.02104  -0.00171  -0.02275   1.95447
    D1        3.05181  -0.00005  -0.00850   0.00583  -0.00232   3.04949
    D2        0.92965   0.00018   0.00231  -0.00049   0.00200   0.93165
    D3       -1.22252   0.00069   0.01758  -0.02584  -0.00867  -1.23119
    D4        0.85276  -0.00110  -0.00744  -0.00382  -0.01120   0.84156
    D5       -1.26940  -0.00087   0.00337  -0.01014  -0.00688  -1.27628
    D6        2.86162  -0.00036   0.01864  -0.03549  -0.01755   2.84407
    D7       -1.06077  -0.00069  -0.01512   0.01023  -0.00438  -1.06514
    D8        3.10026  -0.00045  -0.00431   0.00391  -0.00006   3.10020
    D9        0.94809   0.00005   0.01096  -0.02144  -0.01072   0.93737
   D10        3.01441  -0.00089   0.00291  -0.02264  -0.01959   2.99482
   D11        0.81674  -0.00370   0.00370  -0.04159  -0.03792   0.77882
   D12       -1.44398   0.00001   0.01526  -0.03687  -0.02172  -1.46570
   D13       -2.81269   0.00201   0.00007   0.02214   0.02215  -2.79054
   D14       -0.63387   0.00288  -0.00574   0.03764   0.03193  -0.60194
   D15        1.63484  -0.00106  -0.01675   0.03427   0.01755   1.65239
   D16       -2.89085  -0.00317   0.00265  -0.05542  -0.05274  -2.94359
   D17       -0.74315  -0.00104   0.01526  -0.05192  -0.03652  -0.77966
   D18        1.26359  -0.00160   0.00265  -0.03850  -0.03595   1.22764
   D19       -2.87189   0.00052   0.01526  -0.03500  -0.01973  -2.89162
   D20       -0.84728  -0.00010   0.00066  -0.02517  -0.02460  -0.87187
   D21        1.30043   0.00202   0.01327  -0.02166  -0.00837   1.29206
   D22       -3.08557  -0.00231   0.00391  -0.06229  -0.05862   3.13900
   D23        1.04188  -0.00284   0.00516  -0.04966  -0.04478   0.99709
   D24       -1.04683   0.00157   0.01657  -0.03868  -0.02198  -1.06880
   D25        1.03174  -0.00160  -0.00156  -0.05902  -0.06056   0.97118
   D26       -1.12400  -0.00213  -0.00031  -0.04639  -0.04672  -1.17073
   D27        3.07048   0.00228   0.01110  -0.03541  -0.02392   3.04656
   D28        0.04975   0.00392   0.02180   0.11976   0.14051   0.19026
   D29       -2.94658  -0.00287   0.00228  -0.26308  -0.25971   3.07690
   D30        2.30538   0.00016   0.00753   0.09788   0.10457   2.40995
   D31       -0.69094  -0.00663  -0.01199  -0.28496  -0.29564  -0.98659
   D32       -2.01659   0.00285   0.02017   0.10215   0.12099  -1.89561
   D33        1.27027  -0.00394   0.00065  -0.28069  -0.27923   0.99104
   D34       -0.11715   0.00316  -0.00903   0.19960   0.18861   0.07146
   D35       -3.12186  -0.00328  -0.02750  -0.16217  -0.18770   2.97362
         Item               Value     Threshold  Converged?
 Maximum Force            0.015130     0.000450     NO 
 RMS     Force            0.004407     0.000300     NO 
 Maximum Displacement     0.412499     0.001800     NO 
 RMS     Displacement     0.095701     0.001200     NO 
 Predicted change in Energy=-7.170648D-03
 GradGradGradGradGradGradGradGradGradGradGradGradGradGradGradGradGradGrad

                          Input orientation:                          
 ---------------------------------------------------------------------
 Center     Atomic      Atomic             Coordinates (Angstroms)
 Number     Number       Type             X           Y           Z
 ---------------------------------------------------------------------
      1         15           0       -2.515845    1.170370    0.215589
      2          6           0       -0.721794    1.261146   -0.085829
      3          1           0       -0.202201    0.547272    0.561677
      4          7           0       -0.243403    2.619036    0.171068
      5          1           0       -0.575040    0.914998   -1.121444
      6          6           0        1.105764    2.828011   -0.294394
      7          1           0       -0.869986    3.305571   -0.242661
      8          6           0        1.582564    4.257724   -0.017413
      9          8           0       -3.359503    2.169336   -0.502905
     10          8           0       -2.578401    1.233822    1.833146
     11          8           0       -2.800119   -0.382358   -0.195232
     12          1           0       -3.737302   -0.555663   -0.402490
     13          1           0       -3.477218    1.327340    2.198561
     14          1           0        1.271267    2.628096   -1.373740
     15          1           0        1.776903    2.139341    0.239818
     16          8           0        1.009849    5.052411    0.676760
     17          8           0        2.875568    4.485127   -0.364538
     18          1           0        3.277029    3.713776   -0.795889
 ---------------------------------------------------------------------
                    Distance matrix (angstroms):
                    1          2          3          4          5
     1  P    0.000000
     2  C    1.821458   0.000000
     3  H    2.420944   1.094923   0.000000
     4  N    2.695293   1.462436   2.108668   0.000000
     5  H    2.370569   1.101751   1.762705   2.164328   0.000000
     6  C    4.015458   2.416306   2.765032   1.442421   2.677449
     7  H    2.734580   2.055780   2.949765   1.017403   2.563999
[...]
 ! D19   D(3,2,4,7)           -176.2923         -DE/DX =    0.0                 !
 ! D20   D(5,2,4,6)            -61.1867         -DE/DX =    0.0                 !
 ! D21   D(5,2,4,7)             62.6945         -DE/DX =    0.0                 !
 ! D22   D(2,4,6,8)            161.8025         -DE/DX =    0.0                 !
 ! D23   D(2,4,6,14)            42.3826         -DE/DX =    0.0                 !
 ! D24   D(2,4,6,15)           -76.6915         -DE/DX =    0.0                 !
 ! D25   D(7,4,6,8)             36.6633         -DE/DX =    0.0                 !
 ! D26   D(7,4,6,14)           -82.7566         -DE/DX =    0.0                 !
 ! D27   D(7,4,6,15)           158.1693         -DE/DX =    0.0                 !
 ! D28   D(4,6,8,16)           -18.9958         -DE/DX =    0.0                 !
 ! D29   D(4,6,8,17)           163.7674         -DE/DX =    0.0                 !
 ! D30   D(14,6,8,16)          104.6819         -DE/DX =    0.0                 !
 ! D31   D(14,6,8,17)          -72.5549         -DE/DX =    0.0                 !
 ! D32   D(15,6,8,16)         -140.4399         -DE/DX =    0.0                 !
 ! D33   D(15,6,8,17)           42.3233         -DE/DX =    0.0                 !
 ! D34   D(6,8,17,18)           -4.4753         -DE/DX =    0.0                 !
 ! D35   D(16,8,17,18)         178.208          -DE/DX =    0.0                 !
 --------------------------------------------------------------------------------
 GradGradGradGradGradGradGradGradGradGradGradGradGradGradGradGradGradGrad

                          Input orientation:                          
 ---------------------------------------------------------------------
 Center     Atomic      Atomic             Coordinates (Angstroms)
 Number     Number       Type             X           Y           Z
 ---------------------------------------------------------------------
      1         15           0       -2.531763    1.138442    0.226927
      2          6           0       -0.795302    1.256973   -0.318479
      3          1           0       -0.233327    0.444052    0.156289
      4          7           0       -0.271252    2.542053    0.117409
      5          1           0       -0.757979    1.088516   -1.410847
      6          6           0        1.124928    2.743993   -0.204933
      7          1           0       -0.816213    3.314760   -0.262817
      8          6           0        1.467120    4.231042   -0.133273
      9          8           0       -3.400240    2.273413   -0.175645
     10          8           0       -2.487799    0.869846    1.832370
     11          8           0       -2.907444   -0.332054   -0.338749
     12          1           0       -3.865698   -0.492449   -0.296589
     13          1           0       -2.615118    1.707953    2.308498
     14          1           0        1.401277    2.403931   -1.225516
     15          1           0        1.758898    2.175234    0.491833
     16          8           0        0.640097    5.105389   -0.176722
     17          8           0        2.789017    4.528538   -0.073745
     18          1           0        3.318930    3.715721   -0.015928
 ---------------------------------------------------------------------
                    Distance matrix (angstroms):
                    1          2          3          4          5
     1  P    0.000000
     2  C    1.823956   0.000000
     3  H    2.402077   1.096385   0.000000
     4  N    2.663087   1.454667   2.098704   0.000000
     5  H    2.414768   1.105911   1.773840   2.164541   0.000000
     6  C    4.016926   2.431338   2.695379   1.447067   2.782117
     7  H    2.814129   2.058646   2.959117   1.019132   2.505499
     8  C    5.068036   3.741382   4.161329   2.436690   4.056936
     9  O    1.484747   2.799867   3.672339   3.154143   3.148213
    10  O    1.628350   2.764157   2.841336   3.263503   3.682193
    11  O    1.619717   2.643211   2.828127   3.926587   2.790629
    12  H    2.171004   3.533878   3.778393   4.722250   3.660456
    13  H    2.159682   3.227401   3.449981   3.315163   4.203117
    14  H    4.379481   2.638784   2.902144   2.149389   2.535163
    15  H    4.422091   2.832621   2.660553   2.096725   3.337037
    16  O    5.095125   4.109838   4.754138   2.736377   4.428651
    17  O    6.316159   4.859051   5.086306   3.653479   5.118865
    18  H    6.397809   4.802487   4.832391   3.779507   5.046701
                    6          7          8          9         10
     6  C    0.000000
     7  H    2.024143   0.000000
     8  C    1.527594   2.463730   0.000000
     9  O    4.549665   2.787328   5.246456   0.000000
    10  O    4.551355   3.627894   5.550025   2.614320   0.000000
    11  O    5.073461   4.204553   6.324625   2.656672   2.516828
    12  H    5.948892   4.878047   7.125798   2.807360   2.878701
    13  H    4.623706   3.525556   5.384505   2.665920   0.972281
    14  H    1.110676   2.583343   2.129710   4.916688   5.179671
    15  H    1.100403   2.915341   2.168465   5.203063   4.640638
    16  O    2.410818   2.309676   1.204299   4.934006   5.635602
    17  O    2.443564   3.808765   1.356267   6.588086   6.698067
    18  H    2.406994   4.161866   1.925753   6.874082   6.725572
                   11         12         13         14         15
    11  O    0.000000
    12  H    0.972500   0.000000
    13  H    3.354847   3.632107   0.000000
    14  H    5.180448   6.082183   5.394910   0.000000
    15  H    5.362006   6.274889   4.759268   1.769034   0.000000
    16  O    6.494389   7.186957   5.321214   2.996204   3.206944
    17  O    7.493014   8.339377   6.544880   2.786818   2.630412
    18  H    7.433467   8.331047   6.681841   2.619406   2.250471
                   16         17         18
    16  O    0.000000
    17  O    2.227379   0.000000
    18  H    3.022115   0.972020   0.000000
 Stoichiometry    C3H8NO5P
 Framework group  C1[X(C3H8NO5P)]
 Deg. of freedom    48
 Full point group                 C1      NOp   1
 Largest Abelian subgroup         C1      NOp   1
 Largest concise Abelian subgroup C1      NOp   1
                         Standard orientation:                         
 ---------------------------------------------------------------------
 Center     Atomic      Atomic             Coordinates (Angstroms)
 Number     Number       Type             X           Y           Z
 ---------------------------------------------------------------------
      1         15           0        2.025601    0.132426    0.040967
      2          6           0        0.532799   -0.862215    0.371192
      3          1           0        0.613000   -1.795586   -0.198411
      4          7           0       -0.624183   -0.104479   -0.079681
      5          1           0        0.520274   -1.131393    1.443770
      6          6           0       -1.879736   -0.807210    0.074452
      7          1           0       -0.686358    0.796466    0.392615
      8          6           0       -3.042123    0.182139    0.014542
      9          8           0        2.000352    1.512300    0.588493
     10          8           0        2.276580    0.057754   -1.566191
     11          8           0        3.166444   -0.874767    0.595514
     12          1           0        4.027480   -0.428302    0.666525
     13          1           0        1.909430    0.850751   -1.992440
     14          1           0       -1.973155   -1.347966    1.040090
     15          1           0       -1.986705   -1.565856   -0.715422
     16          8           0       -2.915493    1.366627    0.191433
     17          8           0       -4.266755   -0.360837   -0.197379
     18          1           0       -4.193365   -1.318065   -0.349537
 ---------------------------------------------------------------------
 Rotational constants (GHZ):           2.9295774           0.4462778           0.4278278

 **********************************************************************

            Population analysis using the SCF Density.

 **********************************************************************

 Orbital symmetries:
       Occupied  (A) (A) (A) (A) (A) (A) (A) (A) (A) (A) (A) (A)
                 (A) (A) (A) (A) (A) (A) (A) (A) (A) (A) (A) (A)
                 (A) (A) (A) (A) (A) (A) (A) (A) (A) (A) (A) (A)
                 (A) (A) (A) (A) (A) (A) (A) (A)
       Virtual   (A) (A) (A) (A) (A) (A) (A) (A) (A) (A) (A) (A)
                 (A) (A) (A) (A) (A) (A) (A) (A) (A) (A) (A) (A)
                 (A) (A) (A) (A) (A) (A) (A) (A) (A) (A) (A) (A)
                 (A) (A) (A) (A) (A) (A) (A) (A) (A) (A) (A) (A)
                 (A) (A) (A) (A) (A) (A) (A) (A) (A) (A) (A) (A)
                 (A) (A) (A) (A) (A) (A) (A) (A) (A) (A) (A) (A)
                 (A) (A) (A) (A) (A) (A) (A) (A) (A) (A) (A) (A)
                 (A) (A) (A) (A) (A) (A) (A) (A) (A) (A) (A) (A)
                 (A) (A) (A) (A) (A) (A) (A) (A) (A) (A) (A) (A)
                 (A) (A) (A) (A) (A) (A) (A) (A)
 The electronic state is 1-A.
 Alpha  occ. eigenvalues --  -77.20906 -19.20444 -19.18450 -19.17811 -19.14604
 Alpha  occ. eigenvalues --  -19.10634 -14.33779 -10.33064 -10.24303 -10.22814
 Alpha  occ. eigenvalues --   -6.66910  -4.83315  -4.83178  -4.82943  -1.11416
 Alpha  occ. eigenvalues --   -1.08008  -1.03513  -1.03376  -0.96215  -0.92946
 Alpha  occ. eigenvalues --   -0.76223  -0.69054  -0.62926  -0.62013  -0.55794
 Alpha  occ. eigenvalues --   -0.54675  -0.50357  -0.49641  -0.46769  -0.46490
 Alpha  occ. eigenvalues --   -0.45474  -0.44385  -0.42226  -0.41347  -0.40760
 Alpha  occ. eigenvalues --   -0.38816  -0.37067  -0.36265  -0.33522  -0.32889
 Alpha  occ. eigenvalues --   -0.29619  -0.29284  -0.28500  -0.24730
 Alpha virt. eigenvalues --   -0.00187   0.03911   0.04093   0.05441   0.08177
 Alpha virt. eigenvalues --    0.10731   0.11608   0.13424   0.13642   0.14988
 Alpha virt. eigenvalues --    0.15423   0.16268   0.18149   0.21158   0.22604
 Alpha virt. eigenvalues --    0.24826   0.31322   0.34230   0.35419   0.36555
 Alpha virt. eigenvalues --    0.38655   0.42740   0.49863   0.51755   0.54535
 Alpha virt. eigenvalues --    0.55883   0.56209   0.58549   0.62621   0.65620
 Alpha virt. eigenvalues --    0.67430   0.70112   0.74774   0.75852   0.77644
 Alpha virt. eigenvalues --    0.78964   0.79950   0.82847   0.83197   0.84764
 Alpha virt. eigenvalues --    0.86167   0.87117   0.87429   0.89311   0.92328
 Alpha virt. eigenvalues --    0.93740   0.94991   0.95535   0.96182   0.97494
 Alpha virt. eigenvalues --    0.99146   0.99435   1.01030   1.02598   1.05458
 Alpha virt. eigenvalues --    1.08644   1.10704   1.13147   1.14587   1.17534
 Alpha virt. eigenvalues --    1.20216   1.23701   1.26273   1.30026   1.38006
 Alpha virt. eigenvalues --    1.38956   1.41438   1.46474   1.50680   1.57355
 Alpha virt. eigenvalues --    1.61490   1.63406   1.67681   1.69916   1.70965
 Alpha virt. eigenvalues --    1.72538   1.74144   1.75064   1.76310   1.78116
 Alpha virt. eigenvalues --    1.79683   1.81110   1.82302   1.82758   1.84314
 Alpha virt. eigenvalues --    1.87633   1.88863   1.91623   1.97709   1.99580
 Alpha virt. eigenvalues --    2.01772   2.02856   2.05098   2.08220   2.09584
 Alpha virt. eigenvalues --    2.13889   2.17468   2.21487   2.26335   2.34017
 Alpha virt. eigenvalues --    2.36350   2.38826   2.41068   2.43115   2.46238
 Alpha virt. eigenvalues --    2.49916   2.54253   2.62875   2.64591   2.69118
 Alpha virt. eigenvalues --    2.72493   2.75471   2.84009   2.88596   2.99803
 Alpha virt. eigenvalues --    3.08023
          Condensed to atoms (all electrons):
               1          2          3          4          5          6
     1  P   12.520198   0.238416  -0.010795  -0.003559  -0.014082   0.000706
     2  C    0.238416   5.301387   0.362511   0.276462   0.341610  -0.042042
     3  H   -0.010795   0.362511   0.543200  -0.041092  -0.043061  -0.004151
     4  N   -0.003559   0.276462  -0.041092   6.893036  -0.044045   0.310893
     5  H   -0.014082   0.341610  -0.043061  -0.044045   0.592619  -0.007327
     6  C    0.000706  -0.042042  -0.004151   0.310893  -0.007327   5.207964
     7  H   -0.000244  -0.035214   0.005189   0.304171  -0.003894  -0.051851
     8  C   -0.000092   0.003204  -0.000008  -0.025317   0.000105   0.307085
     9  O    0.614677  -0.037241   0.000806  -0.002718  -0.001291   0.000032
    10  O    0.300719  -0.039513  -0.001029  -0.000920   0.000933  -0.000103
    11  O    0.298045  -0.042545   0.000353   0.000669   0.001981  -0.000014
    12  H   -0.011695   0.002407  -0.000062  -0.000035   0.000010   0.000001
    13  H   -0.009850   0.001234  -0.000096   0.000391  -0.000011   0.000008
    14  H    0.000993  -0.005549  -0.002586  -0.045134   0.012363   0.335457
    15  H   -0.000769  -0.001077   0.004938  -0.046796  -0.001310   0.352081
    16  O   -0.000205   0.000427  -0.000010  -0.005881   0.000016  -0.090410
    17  O    0.000001  -0.000050  -0.000002   0.002138   0.000000  -0.094895
    18  H    0.000002  -0.000016   0.000005   0.000112  -0.000001   0.007432
               7          8          9         10         11         12
     1  P   -0.000244  -0.000092   0.614677   0.300719   0.298045  -0.011695
     2  C   -0.035214   0.003204  -0.037241  -0.039513  -0.042545   0.002407
     3  H    0.005189  -0.000008   0.000806  -0.001029   0.000353  -0.000062
     4  N    0.304171  -0.025317  -0.002718  -0.000920   0.000669  -0.000035
     5  H   -0.003894   0.000105  -0.001291   0.000933   0.001981   0.000010
     6  C   -0.051851   0.307085   0.000032  -0.000103  -0.000014   0.000001
     7  H    0.401485  -0.002107   0.006831  -0.000266   0.000007  -0.000000
     8  C   -0.002107   4.294065   0.000002  -0.000001   0.000000  -0.000000
     9  O    0.006831   0.000002   8.031321  -0.030489  -0.025139  -0.000435
    10  O   -0.000266  -0.000001  -0.030489   8.214865  -0.032805  -0.000652
    11  O    0.000007   0.000000  -0.025139  -0.032805   8.215936   0.250716
    12  H   -0.000000  -0.000000  -0.000435  -0.000652   0.250716   0.311638
    13  H   -0.000067   0.000001  -0.000225   0.251546   0.001065  -0.000021
    14  H   -0.001330  -0.024056  -0.000001  -0.000001   0.000001   0.000000
    15  H    0.005914  -0.020817  -0.000001   0.000018  -0.000000  -0.000000
    16  O    0.023037   0.644864  -0.000001   0.000000  -0.000000  -0.000000
    17  O    0.000583   0.279610  -0.000000  -0.000000  -0.000000   0.000000
    18  H   -0.000049  -0.028117  -0.000000  -0.000000   0.000000   0.000000
              13         14         15         16         17         18
     1  P   -0.009850   0.000993  -0.000769  -0.000205   0.000001   0.000002
     2  C    0.001234  -0.005549  -0.001077   0.000427  -0.000050  -0.000016
     3  H   -0.000096  -0.002586   0.004938  -0.000010  -0.000002   0.000005
     4  N    0.000391  -0.045134  -0.046796  -0.005881   0.002138   0.000112
     5  H   -0.000011   0.012363  -0.001310   0.000016   0.000000  -0.000001
     6  C    0.000008   0.335457   0.352081  -0.090410  -0.094895   0.007432
     7  H   -0.000067  -0.001330   0.005914   0.023037   0.000583  -0.000049
     8  C    0.000001  -0.024056  -0.020817   0.644864   0.279610  -0.028117
     9  O   -0.000225  -0.000001  -0.000001  -0.000001  -0.000000  -0.000000
    10  O    0.251546  -0.000001   0.000018   0.000000  -0.000000  -0.000000
    11  O    0.001065   0.000001  -0.000000  -0.000000  -0.000000   0.000000
    12  H   -0.000021   0.000000  -0.000000  -0.000000   0.000000   0.000000
    13  H    0.309473   0.000000  -0.000001   0.000000   0.000000  -0.000000
    14  H    0.000000   0.628856  -0.054010  -0.000846   0.002069  -0.000197
    15  H   -0.000001  -0.054010   0.598070   0.001882   0.002112   0.002836
    16  O    0.000000  -0.000846   0.001882   7.881592  -0.065705   0.004390
    17  O    0.000000   0.002069   0.002112  -0.065705   8.201848   0.236137
    18  H   -0.000000  -0.000197   0.002836   0.004390   0.236137   0.359896
 Mulliken charges:
               1
     1  P    1.077535
     2  C   -0.324410
     3  H    0.185891
     4  N   -0.572374
     5  H    0.165386
     6  C   -0.230863
     7  H    0.347805
     8  C    0.571580
     9  O   -0.556129
    10  O   -0.662301
    11  O   -0.668270
    12  H    0.448128
    13  H    0.446552
    14  H    0.153970
    15  H    0.156931
    16  O   -0.393152
    17  O   -0.563849
    18  H    0.417570
 Sum of Mulliken charges =  -0.00000
 Mulliken charges with hydrogens summed into heavy atoms:
               1
     1  P    1.077535
     2  C    0.026867
     4  N   -0.224569
     6  C    0.080037
     8  C    0.571580
     9  O   -0.556129
    10  O   -0.215749
    11  O   -0.220142
    16  O   -0.393152
    17  O   -0.146279
 Electronic spatial extent (au):  <R**2>=           2474.9415
 Charge=             -0.0000 electrons
 Dipole moment (field-independent basis, Debye):
    X=              0.2726    Y=             -4.8709    Z=             -0.7433  Tot=              4.9348
 Quadrupole moment (field-independent basis, Debye-Ang):
   XX=            -61.7956   YY=            -67.8486   ZZ=            -62.7304
   XY=             12.3832   XZ=              0.6287   YZ=             -4.1633
 Traceless Quadrupole moment (field-independent basis, Debye-Ang):
   XX=              2.3292   YY=             -3.7237   ZZ=              1.3945
   XY=             12.3832   XZ=              0.6287   YZ=             -4.1633
 Octapole moment (field-independent basis, Debye-Ang**2):
  XXX=             74.1405  YYY=            -12.1699  ZZZ=             -7.5761  XYY=            -16.4305
  XXY=            -45.4001  XXZ=              1.9167  XZZ=             -0.9102  YZZ=              6.9344
  YYZ=            -10.6499  XYZ=            -10.8336
 Hexadecapole moment (field-independent basis, Debye-Ang**3):
 XXXX=          -2245.0661 YYYY=           -329.3166 ZZZZ=           -181.3087 XXXY=            168.3491
 XXXZ=             73.7684 YYYX=             20.8114 YYYZ=             -3.0865 ZZZX=             -9.0106
 ZZZY=            -16.0488 XXYY=           -455.8140 XXZZ=           -429.7725 YYZZ=            -80.7755
 XXYZ=             -6.8092 YYXZ=             -8.3060 ZZXY=             12.6318
 N-N= 6.647423169477D+02 E-N=-3.433124020186D+03  KE= 8.870003847357D+02
 1\1\GINC-N036\FOpt\RB3LYP\6-31G(d)\C3H8N1O5P1\GVALLVER\23-Mar-2023\0\\
 # B3LYP /6-31G* 5d opt\\Coordinates from ORCA-job input\\0,1\P,-2.5317
 632595,1.1384416594,0.2269270435\C,-0.7953016876,1.2569733343,-0.31847
 87505\H,-0.2333274662,0.4440521847,0.1562893125\N,-0.2712515101,2.5420
 534288,0.1174086936\H,-0.7579791802,1.0885159629,-1.4108465745\C,1.124
 9281644,2.7439934147,-0.2049327999\H,-0.816213317,3.3147602964,-0.2628
 17074\C,1.4671200272,4.2310422371,-0.1332733212\O,-3.400239931,2.27341
 25932,-0.1756449325\O,-2.4877994951,0.8698459426,1.8323699242\O,-2.907
 4440268,-0.332054302,-0.3387490847\H,-3.865698486,-0.4924489984,-0.296
 5894508\H,-2.6151175671,1.7079530333,2.3084978963\H,1.4012766262,2.403
 9308443,-1.2255155448\H,1.7588978928,2.1752340726,0.4918328903\O,0.640
 0972041,5.1053889469,-0.1767224448\O,2.7890172338,4.5285384118,-0.0737
 451648\H,3.3189297783,3.7157209372,-0.0159277977\\Version=EM64L-G16Rev
 B.01\State=1-A\HF=-891.399467\RMSD=3.420e-09\RMSF=4.849e-06\Dipole=1.0
 908973,-1.6028896,0.1006151\Quadrupole=8.4643882,-10.1731778,1.7087896
 ,0.0005826,-2.4091604,2.3656987\PG=C01 [X(C3H8N1O5P1)]\\@


 NOTHING PUZZLES ME MORE THAN TIME AND SPACE; AND YET NOTHING TROUBLES ME LESS
                                                          -- CHARLES LAMB (1810)
 Job cpu time:       0 days  0 hours 47 minutes  3.8 seconds.
 Elapsed time:       0 days  0 hours 12 minutes 35.9 seconds.
 File lengths (MBytes):  RWF=     21 Int=      0 D2E=      0 Chk=      3 Scr=      1
 Normal termination of Gaussian 16 at Thu Mar 23 12:57:14 2023.
End job execution: Thu Mar 23 12:57:14 CET 2023
